[Molden Format]
[Title]
 Molden file created by orca_2mkl for BaseName=br

[Atoms] AU
Br   1  35          0.0000000000         0.0000000000         0.0000000000 
[GTO]
  1 0
s   8 1.0 
  1401727.1100000001        21.5848114979
   167143.9201700000        17.1659381011
    32348.6264890000        17.8665960904
     8116.3732218000        21.4932354228
     2408.9215123000        26.7757675457
      807.6692009000        29.4031681023
      294.2212896100        22.6574931985
      110.0524734700         6.8012789137
s   4 1.0 
      671.7324427400        -2.2233485203
      202.7308383900        -4.2144780179
       33.4720498240         5.2607416504
       14.4743089990         2.9298337284
s   2 1.0 
       22.2647778820        -3.0489872482
        3.9221411897         2.3728546591
s   1 1.0 
        1.8622730660         1.1361681584
s   1 1.0 
        0.4745728435         0.4075090466
s   1 1.0 
        0.1744404595         0.1923736161
p   6 1.0 
     3861.3657588000       130.8241273765
      818.5799575500       136.3210596697
      250.2244456700       144.7441285692
       91.2575569860       120.1370998830
       36.0994266800        61.1465996214
       14.5373471980        11.0127990962
p   4 1.0 
       59.6552101740        -4.2746584947
        9.0233534905         6.4350149663
        3.9888065927         4.1313971546
        1.8208605157         0.8831745836
p   1 1.0 
        0.7053395993         0.9213781763
p   1 1.0 
        0.2961705524         0.3114350099
p   1 1.0 
        0.1098580566         0.0901529574
d   5 1.0 
      170.0938364800       232.8907019537
       50.0864824280       184.0168298674
       18.2886008510       108.4246251217
        7.2425634912        40.3076465612
        2.8481115130         8.2766312780
d   1 1.0 
        1.0382071605         3.0441574995
d   1 1.0 
        0.5686565500         1.0615920654
d   1 1.0 
        0.2203149000         0.2019746459
f   1 1.0 
        0.5708331200         1.6149002296

[5D]
[7F]
[9G]
[MO]
 Sym=     1a
 Ene= -4.75720991556376E+02
 Spin= Alpha
 Occup= 1.000000
  1      -0.986970775197
  2      -0.029007898019
  3       0.039365793408
  4      -0.040896444621
  5       0.016318106397
  6      -0.006393454754
  7      -0.000000000000
  8       0.000000000000
  9      -0.000000000000
 10       0.000000000001
 11      -0.000000000000
 12       0.000000000000
 13      -0.000000000002
 14       0.000000000002
 15      -0.000000000003
 16       0.000000000001
 17      -0.000000000003
 18       0.000000000005
 19      -0.000000000002
 20       0.000000000002
 21      -0.000000000002
 22       0.000000013728
 23      -0.000000034377
 24      -0.000000158760
 25       0.000000115955
 26      -0.000000052687
 27       0.000000021191
 28      -0.000000053065
 29      -0.000000245060
 30       0.000000178988
 31      -0.000000081326
 32      -0.000000035102
 33       0.000000087900
 34       0.000000405939
 35      -0.000000296489
 36       0.000000134716
 37       0.000000013137
 38      -0.000000032902
 39      -0.000000151947
 40       0.000000110981
 41      -0.000000050426
 42       0.000000000001
 43      -0.000000000001
 44      -0.000000000001
 45      -0.000000000000
 46       0.000000000000
 47      -0.000000000000
 48      -0.000000000000
 Sym=     1a
 Ene= -6.16766350731566E+01
 Spin= Alpha
 Occup= 1.000000
  1       0.344839277524
  2      -1.037217903519
  3      -0.158248210182
  4       0.125590726199
  5      -0.046760031904
  6       0.018232443332
  7      -0.000000000033
  8      -0.000000000007
  9      -0.000000000047
 10      -0.000000000014
 11       0.000000000001
 12      -0.000000000013
 13       0.000000000051
 14       0.000000000001
 15       0.000000000008
 16      -0.000000000086
 17      -0.000000000006
 18       0.000000000008
 19       0.000000000069
 20      -0.000000000014
 21       0.000000000013
 22       0.000005761084
 23      -0.000014426726
 24      -0.000066625040
 25       0.000048661782
 26      -0.000022110800
 27      -0.000005085334
 28       0.000012734557
 29       0.000058810385
 30      -0.000042954054
 31       0.000019517306
 32       0.000004296552
 33      -0.000010759342
 34      -0.000049688464
 35       0.000036291573
 36      -0.000016490038
 37      -0.000001235385
 38       0.000003093650
 39       0.000014287007
 40      -0.000010434973
 41       0.000004741398
 42      -0.000000000002
 43       0.000000000000
 44      -0.000000000001
 45      -0.000000000000
 46      -0.000000000000
 47       0.000000000000
 48       0.000000000001
 Sym=     1a
 Ene= -5.62399230533045E+01
 Spin= Alpha
 Occup= 1.000000
  1      -0.000000000016
  2       0.000000000041
  3      -0.000000000015
  4       0.000000000021
  5      -0.000000000008
  6      -0.000000000002
  7      -0.176352083464
  8      -0.814422863508
  9      -0.531389778229
 10      -0.005674667681
 11      -0.026206546670
 12      -0.017099091457
 13       0.002710035909
 14       0.012515390677
 15       0.008165967561
 16      -0.001806176256
 17      -0.008341218429
 18      -0.005442428491
 19       0.000586387030
 20       0.002708031526
 21       0.001766920253
 22       0.000000000003
 23      -0.000000000003
 24      -0.000000000011
 25       0.000000000005
 26      -0.000000000004
 27      -0.000000000008
 28       0.000000000004
 29       0.000000000026
 30      -0.000000000011
 31       0.000000000007
 32       0.000000000007
 33       0.000000000001
 34      -0.000000000019
 35       0.000000000010
 36      -0.000000000008
 37      -0.000000000025
 38      -0.000000000004
 39      -0.000000000004
 40      -0.000000000013
 41       0.000000000009
 42      -0.000000032868
 43       0.000000003828
 44       0.000000017681
 45      -0.000000053007
 46       0.000000024085
 47       0.000000022255
 48       0.000000029906
 Sym=     1a
 Ene= -5.62346960815229E+01
 Spin= Alpha
 Occup= 1.000000
  1       0.000000000008
  2      -0.000000000023
  3      -0.000000000003
  4      -0.000000000003
  5       0.000000000020
  6      -0.000000000026
  7       0.957707681338
  8      -0.051693732425
  9      -0.238606748867
 10       0.030750700212
 11      -0.001659815940
 12      -0.007661340455
 13      -0.014676484098
 14       0.000792185636
 15       0.003656552223
 16       0.009781443819
 17      -0.000527968363
 18      -0.002436984207
 19      -0.003175690523
 20       0.000171412725
 21       0.000791203001
 22      -0.000000000003
 23       0.000000000006
 24      -0.000000000001
 25       0.000000000005
 26       0.000000000003
 27       0.000000000003
 28      -0.000000000011
 29       0.000000000005
 30      -0.000000000006
 31      -0.000000000014
 32      -0.000000000001
 33       0.000000000007
 34      -0.000000000010
 35      -0.000000000001
 36       0.000000000020
 37      -0.000000000009
 38       0.000000000010
 39       0.000000000015
 40       0.000000000003
 41      -0.000000000019
 42       0.000000002109
 43      -0.000000001608
 44       0.000000008738
 45      -0.000000009834
 46      -0.000000019677
 47      -0.000000018967
 48       0.000000009885
 Sym=     1a
 Ene= -5.62346960809405E+01
 Spin= Alpha
 Occup= 1.000000
  1      -0.000000000016
  2       0.000000000048
  3       0.000000000002
  4      -0.000000000018
  5       0.000000000068
  6      -0.000000000079
  7      -0.168830636157
  8       0.557511302950
  9      -0.798427697952
 10      -0.005420923714
 11       0.017900934979
 12      -0.025636435051
 13       0.002587261443
 14      -0.008543635919
 15       0.012235582528
 16      -0.001724333452
 17       0.005694081376
 18      -0.008154654877
 19       0.000559830367
 20      -0.001848667835
 21       0.002647529433
 22      -0.000000000000
 23      -0.000000000002
 24      -0.000000000002
 25      -0.000000000000
 26      -0.000000000002
 27      -0.000000000014
 28       0.000000000002
 29       0.000000000019
 30       0.000000000011
 31      -0.000000000001
 32       0.000000000024
 33      -0.000000000002
 34      -0.000000000034
 35      -0.000000000029
 36       0.000000000010
 37      -0.000000000044
 38       0.000000000007
 39       0.000000000053
 40       0.000000000029
 41      -0.000000000012
 42       0.000000007062
 43       0.000000006805
 44       0.000000026620
 45       0.000000000235
 46       0.000000007108
 47      -0.000000001723
 48      -0.000000012876
 Sym=     1a
 Ene= -8.78013560353504E+00
 Spin= Alpha
 Occup= 1.000000
  1      -0.135184672754
  2       0.543807435583
  3      -0.413882980854
  4      -0.713453580618
  5       0.013010905124
  6      -0.013935307390
  7       0.000000000073
  8       0.000000000071
  9       0.000000000137
 10      -0.000000000158
 11      -0.000000000157
 12      -0.000000000312
 13      -0.000000000257
 14      -0.000000000155
 15      -0.000000000198
 16       0.000000000393
 17       0.000000000079
 18       0.000000000175
 19      -0.000000000333
 20       0.000000000058
 21      -0.000000000086
 22       0.000131171224
 23      -0.000328474837
 24      -0.001516949606
 25       0.001107954319
 26      -0.000503429871
 27       0.000110207764
 28      -0.000275978930
 29      -0.001274516323
 30       0.000930885205
 31      -0.000422973033
 32      -0.000061203353
 33       0.000153263823
 34       0.000707797767
 35      -0.000516963366
 36       0.000234896338
 37       0.000015954327
 38      -0.000039952416
 39      -0.000184506906
 40       0.000134760607
 41      -0.000061232135
 42      -0.000000000055
 43       0.000000000036
 44      -0.000000000060
 45      -0.000000000027
 46       0.000000000033
 47      -0.000000000011
 48       0.000000000010
 Sym=     1a
 Ene= -6.70953574854497E+00
 Spin= Alpha
 Occup= 1.000000
  1       0.000000000072
  2      -0.000000000236
  3       0.000000000335
  4       0.000000000263
  5      -0.000000000376
  6       0.000000000298
  7       0.075478994079
  8       0.348574173418
  9       0.227435577862
 10      -0.187044448384
 11      -0.863801442529
 12      -0.563607964187
 13      -0.011235312347
 14      -0.051886487834
 15      -0.033854582909
 16       0.003433317705
 17       0.015855617545
 18       0.010345377614
 19      -0.001076432986
 20      -0.004971141726
 21      -0.003243540588
 22       0.000000000080
 23      -0.000000000079
 24      -0.000000000118
 25       0.000000000058
 26      -0.000000000056
 27      -0.000000000188
 28      -0.000000000011
 29      -0.000000000234
 30       0.000000000094
 31      -0.000000000136
 32       0.000000000062
 33       0.000000000002
 34       0.000000000162
 35      -0.000000000086
 36       0.000000000106
 37      -0.000000000011
 38       0.000000000013
 39       0.000000000079
 40      -0.000000000033
 41      -0.000000000002
 42       0.000248292063
 43      -0.000028919598
 44      -0.000133555812
 45       0.000400373063
 46      -0.000181920382
 47      -0.000168070861
 48      -0.000225862970
 Sym=     1a
 Ene= -6.68819116121024E+00
 Spin= Alpha
 Occup= 1.000000
  1      -0.000000000015
  2       0.000000000042
  3      -0.000000000080
  4      -0.000000000012
  5      -0.000000000041
  6       0.000000000099
  7      -0.391356261815
  8      -0.019681544743
  9       0.160043804365
 10       0.970213935897
 11       0.048792649730
 12      -0.396765669771
 13       0.056001447617
 14       0.002816346622
 15      -0.022901600649
 16      -0.016637425744
 17      -0.000836705993
 18       0.006803818528
 19       0.005214586394
 20       0.000262244708
 21      -0.002132487341
 22      -0.000000000074
 23       0.000000000081
 24       0.000000000084
 25       0.000000000100
 26       0.000000000038
 27      -0.000000000109
 28       0.000000000078
 29      -0.000000000207
 30      -0.000000000049
 31       0.000000000154
 32       0.000000000074
 33       0.000000000007
 34       0.000000000112
 35       0.000000000012
 36      -0.000000000129
 37      -0.000000000003
 38      -0.000000000027
 39      -0.000000000092
 40      -0.000000000006
 41       0.000000000033
 42      -0.000047483045
 43       0.000005652444
 44      -0.000190422888
 45       0.000138636189
 46       0.000260963589
 47       0.000272831495
 48      -0.000107784445
 Sym=     1a
 Ene= -6.68819116040579E+00
 Spin= Alpha
 Occup= 1.000000
  1       0.000000000024
  2      -0.000000000118
  3       0.000000000034
  4       0.000000000211
  5      -0.000000000095
  6       0.000000000190
  7       0.142467122792
  8      -0.238980076688
  9       0.318987065646
 10      -0.353191200525
 11       0.592457112389
 12      -0.790802975869
 13      -0.020386450582
 14       0.034197051880
 15      -0.045645717577
 16       0.006056594465
 17      -0.010159575323
 18       0.013560850033
 19      -0.001898288534
 20       0.003184265613
 21      -0.004250310498
 22      -0.000000000087
 23      -0.000000000027
 24       0.000000000137
 25      -0.000000000056
 26      -0.000000000015
 27      -0.000000000100
 28      -0.000000000132
 29      -0.000000000266
 30      -0.000000000092
 31      -0.000000000002
 32       0.000000000041
 33       0.000000000036
 34       0.000000000168
 35       0.000000000042
 36       0.000000000046
 37       0.000000000035
 38      -0.000000000022
 39      -0.000000000181
 40       0.000000000001
 41      -0.000000000008
 42      -0.000094639790
 43      -0.000100468157
 44      -0.000355341957
 45      -0.000028074355
 46      -0.000149780765
 47      -0.000023091604
 48       0.000207002019
 Sym=     1a
 Ene= -2.82239878484881E+00
 Spin= Alpha
 Occup= 1.000000
  1      -0.000657585204
  2       0.002368164730
  3      -0.002969822054
  4      -0.005065355707
  5       0.007631324851
  6      -0.001060632860
  7       0.000000000050
  8       0.000000000118
  9       0.000000000198
 10      -0.000000000187
 11      -0.000000000346
 12      -0.000000000699
 13       0.000000000841
 14       0.000000000536
 15       0.000000002492
 16      -0.000000001723
 17      -0.000000001060
 18      -0.000000004248
 19       0.000000001580
 20       0.000000000988
 21       0.000000003587
 22      -0.060297161958
 23       0.150994355662
 24       0.697316037745
 25      -0.509307868842
 26       0.231418176611
 27      -0.011805555811
 28       0.029563118997
 29       0.136527202919
 30      -0.099717165865
 31       0.045309263675
 32      -0.000394129375
 33       0.000986967301
 34       0.004557973147
 35      -0.003329066102
 36       0.001512653713
 37      -0.000459292988
 38       0.001150147337
 39       0.005311564228
 40      -0.003879477579
 41       0.001762748128
 42       0.000000000092
 43       0.000000000128
 44       0.000000000206
 45      -0.000000000322
 46       0.000000000044
 47       0.000000000107
 48      -0.000000000083
 Sym=     1a
 Ene= -2.81699012818106E+00
 Spin= Alpha
 Occup= 1.000000
  1      -0.000000000087
  2       0.000000000238
  3      -0.000000000560
  4      -0.000000000498
  5       0.000000001847
  6      -0.000000001236
  7      -0.000000000152
  8      -0.000000000034
  9       0.000000000015
 10       0.000000000465
 11       0.000000000117
 12      -0.000000000063
 13      -0.000000000712
 14      -0.000000000369
 15       0.000000000277
 16       0.000000000654
 17       0.000000000624
 18      -0.000000000298
 19      -0.000000000321
 20      -0.000000000508
 21       0.000000000033
 22       0.113004579236
 23      -0.458884191808
 24       0.161477796979
 25      -0.253707858273
 26      -0.716078964050
 27       0.022010765327
 28      -0.089380381949
 29       0.031452265390
 30      -0.049416618786
 31      -0.139476173777
 32       0.000734771647
 33      -0.002983728456
 34       0.001049951113
 35      -0.001649643843
 36      -0.004656045262
 37       0.000852854181
 38      -0.003463234316
 39       0.001218685226
 40      -0.001914752701
 41      -0.005404302559
 42       0.000000000042
 43      -0.000000000208
 44       0.000000000153
 45      -0.000000000147
 46      -0.000000000224
 47      -0.000000000142
 48       0.000000000037
 Sym=     1a
 Ene= -2.81699012731255E+00
 Spin= Alpha
 Occup= 1.000000
  1       0.000000000010
  2      -0.000000000149
  3      -0.000000000150
  4       0.000000000822
  5      -0.000000001334
  6       0.000000000832
  7      -0.000000000005
  8      -0.000000000053
  9       0.000000000171
 10       0.000000000033
 11       0.000000000158
 12      -0.000000000558
 13      -0.000000000267
 14      -0.000000000198
 15       0.000000001148
 16       0.000000000420
 17      -0.000000000022
 18      -0.000000001252
 19      -0.000000000215
 20       0.000000000136
 21       0.000000000717
 22       0.704874453265
 23       0.155763099841
 24       0.353703556819
 25       0.420702569452
 26      -0.057875544395
 27       0.137293786141
 28       0.030339168769
 29       0.068893545275
 30       0.081943456246
 31      -0.011272861827
 32       0.004583191824
 33       0.001012793818
 34       0.002299830100
 35       0.002735466387
 36      -0.000376315195
 37       0.005319741710
 38       0.001175555600
 39       0.002669427399
 40       0.003175074705
 41      -0.000436790847
 42       0.000000000079
 43       0.000000000137
 44       0.000000000294
 45       0.000000000025
 46      -0.000000000016
 47      -0.000000000063
 48       0.000000000007
 Sym=     1a
 Ene= -2.80097510996809E+00
 Spin= Alpha
 Occup= 1.000000
  1      -0.000000000026
  2      -0.000000000103
  3      -0.000000000443
  4       0.000000001100
  5      -0.000000001899
  6       0.000000001508
  7       0.000000000027
  8      -0.000000000088
  9       0.000000000072
 10      -0.000000000074
 11       0.000000000344
 12      -0.000000000292
 13       0.000000000139
 14      -0.000000001584
 15       0.000000001661
 16      -0.000000000600
 17       0.000000002656
 18      -0.000000003073
 19       0.000000000744
 20      -0.000000001976
 21       0.000000002398
 22      -0.560018236827
 23       0.054763237271
 24       0.410066255404
 25       0.542547908808
 26      -0.223224936170
 27      -0.107306218104
 28       0.010493293536
 29       0.078573618304
 30       0.103958693005
 31      -0.042772578407
 32      -0.004017403225
 33       0.000392855187
 34       0.002941692868
 35       0.003892076377
 36      -0.001601348479
 37      -0.004065469012
 38       0.000397555286
 39       0.002976887566
 40       0.003938642438
 41      -0.001620508083
 42      -0.000000000283
 43      -0.000000000084
 44       0.000000000132
 45       0.000000000213
 46      -0.000000000073
 47       0.000000000056
 48       0.000000000051
 Sym=     1a
 Ene= -2.80097510963521E+00
 Spin= Alpha
 Occup= 1.000000
  1       0.000000000041
  2      -0.000000000113
  3       0.000000000261
  4       0.000000000222
  5      -0.000000000825
  6       0.000000000542
  7       0.000000000019
  8      -0.000000000014
  9      -0.000000000028
 10      -0.000000000044
 11       0.000000000025
 12       0.000000000139
 13      -0.000000000167
 14       0.000000000386
 15      -0.000000001138
 16       0.000000000367
 17      -0.000000001299
 18       0.000000002585
 19      -0.000000000331
 20       0.000000001449
 21      -0.000000002357
 22      -0.024286320770
 23       0.753359867921
 24      -0.144832223646
 25      -0.179171928582
 26      -0.455786691186
 27      -0.004653551429
 28       0.144352795640
 29      -0.027751593005
 30      -0.034331493217
 31      -0.087334202082
 32      -0.000174222374
 33       0.005404378766
 34      -0.001038983111
 35      -0.001285325940
 36      -0.003269678076
 37      -0.000176307782
 38       0.005469038152
 39      -0.001051413963
 40      -0.001300704032
 41      -0.003308796674
 42       0.000000000019
 43       0.000000000303
 44      -0.000000000113
 45      -0.000000000047
 46      -0.000000000087
 47      -0.000000000004
 48       0.000000000116
 Sym=     1a
 Ene= -8.98389089175330E-01
 Spin= Alpha
 Occup= 1.000000
  1      -0.043648717288
  2       0.165540247651
  3      -0.197516202025
  4      -0.546466331290
  5       0.665969951292
  6       0.609093289941
  7       0.000000000072
  8       0.000000000562
  9       0.000000000754
 10      -0.000000000202
 11      -0.000000001804
 12      -0.000000002513
 13      -0.000000000204
 14       0.000000002366
 15       0.000000001883
 16       0.000000001967
 17       0.000000001346
 18       0.000000005546
 19      -0.000000002709
 20      -0.000000000912
 21      -0.000000001259
 22       0.000867932625
 23      -0.002173449701
 24      -0.010037351966
 25       0.007331119437
 26      -0.003331093228
 27      -0.000096317801
 28       0.000241196121
 29       0.001113886675
 30      -0.000813569262
 31       0.000369666668
 32      -0.001125993267
 33       0.002819676883
 34       0.013021740832
 35      -0.009510863550
 36       0.004321516788
 37      -0.000772857189
 38       0.001935366557
 39       0.008937848754
 40      -0.006528073477
 41       0.002966206240
 42      -0.000000001225
 43      -0.000000000323
 44      -0.000000002449
 45      -0.000000002400
 46       0.000000001331
 47      -0.000000000645
 48      -0.000000000813
 Sym=     1a
 Ene= -4.66210201858814E-01
 Spin= Alpha
 Occup= 1.000000
  1      -0.000000000264
  2       0.000000000954
  3      -0.000000001286
  4      -0.000000003209
  5       0.000000005199
  6       0.000000001691
  7      -0.020827894933
  8      -0.096186569660
  9      -0.062759229630
 10       0.066464459493
 11       0.306943567055
 12       0.200272677000
 13      -0.051649736767
 14      -0.238526789512
 15      -0.155632511172
 16      -0.101204385247
 17      -0.467378170256
 18      -0.304952076336
 19      -0.055808337547
 20      -0.257731805182
 21      -0.168163287599
 22      -0.000000000746
 23       0.000000001130
 24       0.000000003713
 25      -0.000000002968
 26       0.000000001465
 27       0.000000002566
 28      -0.000000001124
 29      -0.000000004694
 30       0.000000006977
 31      -0.000000002670
 32      -0.000000003463
 33       0.000000000011
 34       0.000000002017
 35      -0.000000007203
 36       0.000000002112
 37       0.000000004152
 38      -0.000000002226
 39      -0.000000010152
 40       0.000000009892
 41      -0.000000003565
 42       0.007358478746
 43      -0.000857072508
 44      -0.003958104101
 45       0.011865616779
 46      -0.005391466108
 47      -0.004981014704
 48      -0.006693766444
 Sym=     1a
 Ene= -4.22944002907741E-01
 Spin= Alpha
 Occup= 1.000000
  1      -0.000000000199
  2       0.000000000884
  3      -0.000000000752
  4      -0.000000003826
  5       0.000000007571
  6      -0.000000002168
  7       0.022081096693
  8       0.058124421754
  9      -0.096411181539
 10      -0.070520105372
 11      -0.185631194265
 12       0.307907110583
 13       0.055596813366
 14       0.146348377207
 15      -0.242748560972
 16       0.103655894260
 17       0.272855055791
 18      -0.452585643104
 19       0.066664999460
 20       0.175483335533
 21      -0.291074817701
 22       0.000000001797
 23      -0.000000002234
 24      -0.000000000365
 25       0.000000001958
 26       0.000000000679
 27       0.000000003033
 28       0.000000005594
 29      -0.000000010105
 30      -0.000000006673
 31      -0.000000003008
 32      -0.000000007281
 33      -0.000000006014
 34       0.000000014252
 35       0.000000006947
 36       0.000000004682
 37      -0.000000007053
 38       0.000000007585
 39       0.000000011919
 40      -0.000000004051
 41      -0.000000003480
 42      -0.003197003892
 43      -0.002512043809
 44      -0.012194661070
 45       0.001453987093
 46       0.000227482683
 47       0.003693936545
 48       0.003663448971
 Sym=     1a
 Ene= -4.22944001499778E-01
 Spin= Alpha
 Occup= 1.000000
  1       0.000000000003
  2      -0.000000000009
  3       0.000000000101
  4       0.000000000383
  5      -0.000000002284
  6       0.000000002579
  7       0.110700100528
  8      -0.029075844427
  9       0.007824434752
 10      -0.353541441429
 11       0.092859138360
 12      -0.024988793425
 13       0.278725864475
 14      -0.073208513043
 15       0.019700727052
 16       0.519662500700
 17      -0.136491537334
 18       0.036730452437
 19       0.334214492423
 20      -0.087782818740
 21       0.023622746313
 22       0.000000000348
 23      -0.000000001927
 24      -0.000000000847
 25      -0.000000001042
 26      -0.000000001764
 27      -0.000000001726
 28      -0.000000000709
 29       0.000000005908
 30       0.000000001409
 31       0.000000003194
 32       0.000000002214
 33       0.000000004023
 34      -0.000000008571
 35      -0.000000001086
 36      -0.000000001985
 37      -0.000000000340
 38       0.000000006396
 39       0.000000001847
 40       0.000000004136
 41       0.000000003560
 42       0.000259460871
 43       0.001726735468
 44       0.000659927016
 45       0.004030685338
 46       0.009112025148
 47       0.007426405126
 48      -0.006046587930
 Sym=     1a
 Ene= 3.33255423532528E-01
 Spin= Alpha
 Occup= 0.000000
  1      -0.000000000073
  2      -0.000000000237
  3      -0.000000001168
  4       0.000000002688
  5      -0.000000005756
  6       0.000000006271
  7       0.012731518020
  8       0.058796175482
  9       0.038362971829
 10      -0.040424026488
 11      -0.186684584054
 12      -0.121806824615
 13       0.003051725453
 14       0.014093331733
 15       0.009195531606
 16       0.226983825085
 17       1.048247508247
 18       0.683954172930
 19      -0.266635212179
 20      -1.231363982384
 21      -0.803432897748
 22      -0.000000004022
 23       0.000000011554
 24       0.000000025942
 25      -0.000000027185
 26       0.000000017113
 27       0.000000007511
 28      -0.000000012974
 29      -0.000000036187
 30       0.000000043292
 31      -0.000000024451
 32      -0.000000007347
 33       0.000000012852
 34       0.000000036462
 35      -0.000000043860
 36       0.000000025455
 37       0.000000017999
 38      -0.000000063080
 39      -0.000000129044
 40       0.000000131565
 41      -0.000000088239
 42      -0.004021043548
 43       0.000468348708
 44       0.002162908582
 45      -0.006483967654
 46       0.002946171270
 47       0.002721880586
 48       0.003657809115
 Sym=     1a
 Ene= 3.49904666195384E-01
 Spin= Alpha
 Occup= 0.000000
  1      -0.002452747239
  2       0.010649381735
  3      -0.009304148982
  4      -0.046750886777
  5       0.109734033788
  6      -0.056403360371
  7      -0.000000020761
  8      -0.000000003464
  9      -0.000000010013
 10       0.000000065848
 11       0.000000011106
 12       0.000000031818
 13      -0.000000002069
 14       0.000000002874
 15      -0.000000006312
 16      -0.000000378275
 17      -0.000000090520
 18      -0.000000162116
 19       0.000000440001
 20       0.000000129188
 21       0.000000186227
 22      -0.011764724259
 23       0.029460864465
 24       0.136054862576
 25      -0.099372164136
 26       0.045152553948
 27       0.008810339989
 28      -0.022062584804
 29      -0.101888438564
 30       0.074417585050
 31      -0.033813740811
 32      -0.006091130031
 33       0.015253219796
 34       0.070441712536
 35      -0.051449427475
 36       0.023377515654
 37       0.066986745690
 38      -0.167746170856
 39      -0.774677931559
 40       0.565811617241
 41      -0.257092526914
 42       0.000000001011
 43      -0.000000000467
 44      -0.000000001320
 45       0.000000001154
 46      -0.000000002181
 47      -0.000000001757
 48       0.000000000002
 Sym=     1a
 Ene= 3.52506052807150E-01
 Spin= Alpha
 Occup= 0.000000
  1       0.000000000291
  2      -0.000000002794
  3      -0.000000001432
  4       0.000000017194
  5      -0.000000042976
  6       0.000000037189
  7       0.055905253163
  8      -0.033195267653
  9       0.032322735870
 10      -0.177273587866
 11       0.105261024006
 12      -0.102494256597
 13       0.008382171906
 14      -0.004977139359
 15       0.004846320554
 16       0.999567086749
 17      -0.593520218291
 18       0.577919624680
 19      -1.148617205867
 20       0.682022803343
 21      -0.664095923873
 22      -0.000000027903
 23      -0.000000017671
 24       0.000000064259
 25      -0.000000022490
 26      -0.000000038336
 27       0.000000036654
 28       0.000000025322
 29      -0.000000090316
 30       0.000000002551
 31       0.000000017844
 32      -0.000000037471
 33      -0.000000023586
 34       0.000000090119
 35       0.000000008890
 36      -0.000000007560
 37       0.000000147971
 38       0.000000082525
 39      -0.000000326588
 40       0.000000134956
 41       0.000000236377
 42       0.000947358261
 43       0.001501901421
 44       0.003449581471
 45       0.001632807055
 46       0.004474336353
 47       0.002748593171
 48      -0.003945422815
 Sym=     1a
 Ene= 3.52506054857845E-01
 Spin= Alpha
 Occup= 0.000000
  1      -0.000000000758
  2       0.000000003594
  3      -0.000000002474
  4      -0.000000017662
  5       0.000000046458
  6      -0.000000032245
  7       0.044483947333
  8       0.024291214209
  9      -0.051992284968
 10      -0.141057029705
 11      -0.077026584558
 12       0.164865703798
 13       0.006669717785
 14       0.003642113823
 15      -0.007795480809
 16       0.795357981602
 17       0.434318719050
 18      -0.929604543152
 19      -0.913957532584
 20      -0.499082018245
 21       1.068222239414
 22       0.000000017016
 23       0.000000001755
 24       0.000000005491
 25      -0.000000038220
 26      -0.000000030735
 27      -0.000000022199
 28      -0.000000017907
 29       0.000000028913
 30       0.000000050162
 31       0.000000027483
 32       0.000000021228
 33       0.000000024613
 34      -0.000000041024
 35      -0.000000049294
 36      -0.000000022514
 37      -0.000000086995
 38       0.000000002361
 39      -0.000000061991
 40       0.000000202271
 41       0.000000171033
 42      -0.001523859574
 43      -0.000807586242
 44      -0.005897025979
 45       0.001754943115
 46       0.002445447127
 47       0.003738310185
 48       0.000274623245
 Sym=     1a