[Molden Format]
[Title]
 Molden file created by orca_2mkl for BaseName=c

[Atoms] AU
C    1   6          0.0000000000         0.0000000000         0.0000000000 
[GTO]
  1 0
s   6 1.0 
    13602.8672210000        -0.7230666965
     2025.6373438000        -1.0817395127
      463.9123100100        -1.7613986101
      130.8221519900        -2.7107086450
       42.9239238210        -3.5943872719
       15.5815251310        -3.7040266654
s   2 1.0 
        6.2892392533        -1.8044443967
        2.6572302404        -0.5840075679
s   1 1.0 
        0.5780774240         0.4724975913
s   1 1.0 
        0.2298998570         0.2366269021
s   1 1.0 
        0.0951607742         0.1221106568
p   4 1.0 
       34.7070384900         1.3683719015
        7.9558987851         1.4535470513
        2.3791715536         1.2724285806
        0.8143935949         0.8024008070
p   1 1.0 
        0.2889777900         0.3020095454
p   1 1.0 
        0.1005896820         0.0807480200
d   1 1.0 
        1.0970000000         3.3522135855
d   1 1.0 
        0.3180000000         0.3838994974
f   1 1.0 
        0.7610000000         3.0840084332

[5D]
[7F]
[9G]
[MO]
 Sym=     1a
 Ene= -1.04790864495310E+01
 Spin= Alpha
 Occup= 1.000000
  1      -0.466834002585
  2      -0.610044686857
  3       0.030146870814
  4      -0.016366339578
  5       0.005644677144
  6       0.000000007389
  7       0.000000002227
  8       0.000000004670
  9      -0.000000004719
 10      -0.000000001193
 11      -0.000000003267
 12       0.000000001448
 13       0.000000000551
 14       0.000000001257
 15       0.000355086428
 16       0.000002191229
 17       0.000123755004
 18       0.000626884557
 19      -0.000022253420
 20      -0.000089456911
 21      -0.000000551209
 22      -0.000031180309
 23      -0.000157935320
 24       0.000005602612
 25       0.000000000054
 26       0.000000000060
 27      -0.000000000054
 28       0.000000000059
 29      -0.000000000021
 30      -0.000000000058
 31       0.000000000154
 Sym=     1a
 Ene= -6.96889321511006E-01
 Spin= Alpha
 Occup= 1.000000
  1      -0.113593671544
  2      -0.249322858215
  3      -0.439587123344
  4      -0.506089888251
  5      -0.186383973433
  6      -0.000000239558
  7      -0.000000186879
  8      -0.000000135457
  9      -0.000000248191
 10      -0.000000184068
 11      -0.000000141581
 12       0.000000079029
 13      -0.000000026506
 14       0.000000054903
 15      -0.001512378731
 16      -0.000009301690
 17      -0.000527109444
 18      -0.002670214511
 19       0.000094659665
 20      -0.001954158803
 21      -0.000012115968
 22      -0.000680921345
 23      -0.003449641439
 24       0.000122738301
 25      -0.000000001947
 26      -0.000000000487
 27       0.000000003284
 28      -0.000000002620
 29      -0.000000000188
 30       0.000000002410
 31      -0.000000005225
 Sym=     1a
 Ene= -3.63743330770154E-01
 Spin= Alpha
 Occup= 1.000000
  1       0.000000024024
  2       0.000000053104
  3       0.000000065874
  4       0.000000004452
  5       0.000000337798
  6      -0.484487235963
  7       0.013734647973
  8       0.051940689046
  9      -0.421075114528
 10       0.011937874198
 11       0.045142341532
 12      -0.282366779995
 13       0.008005693939
 14       0.030271760180
 15       0.000000034357
 16      -0.000000025639
 17       0.000000003210
 18      -0.000000049886
 19      -0.000000014887
 20       0.000000134195
 21      -0.000000096377
 22       0.000000014729
 23      -0.000000199153
 24      -0.000000040728
 25      -0.000100079166
 26       0.000380308605
 27      -0.000052671709
 28      -0.000122947117
 29       0.000252028333
 30      -0.001533090367
 31       0.000097975694
 Sym=     1a
 Ene= -3.63742587217461E-01
 Spin= Alpha
 Occup= 1.000000
  1      -0.000000019720
  2      -0.000000043422
  3      -0.000000052098
  4      -0.000000012672
  5      -0.000000266214
  6       0.053029889148
  7       0.046645387946
  8       0.482312590982
  9       0.046089181654
 10       0.040539896002
 11       0.419186176762
 12       0.030906810494
 13       0.027185429002
 14       0.281100884615
 15       0.000000031684
 16       0.000000054845
 17       0.000000019343
 18       0.000000002142
 19       0.000000006666
 20       0.000000135673
 21       0.000000221186
 22       0.000000067506
 23       0.000000006648
 24       0.000000021223
 25      -0.000928982400
 26      -0.000048613109
 27      -0.000425917586
 28      -0.001223793305
 29       0.000016843349
 30       0.000173191467
 31       0.000141803434
 Sym=     1a
 Ene= -6.28815746238382E-02
 Spin= Alpha
 Occup= 0.000000
  1       0.000000031383
  2       0.000000067812
  3       0.000000116980
  4       0.000000074425
  5       0.000000185261
  6      -0.007585923985
  7      -0.426782561541
  8       0.042108391031
  9      -0.006574728399
 10      -0.369938928542
 11       0.036500205015
 12      -0.007263582165
 13      -0.408737735798
 14       0.040328475578
 15       0.000000012882
 16       0.000000002122
 17      -0.000000011849
 18       0.000000018645
 19      -0.000000024659
 20       0.000000018008
 21       0.000000005401
 22      -0.000000033634
 23       0.000000022376
 24      -0.000000059415
 25       0.000412510972
 26      -0.000029295936
 27      -0.001651014101
 28       0.000535780573
 29      -0.000018960660
 30       0.000117990463
 31       0.002215410867
 Sym=     1a
 Ene= 2.08757792317650E-01
 Spin= Alpha
 Occup= 0.000000
  1      -0.055285702973
  2      -0.106253594155
  3       0.072748030883
  4      -1.880586891875
  5       2.086000438356
  6      -0.000000148774
  7      -0.000000028572
  8      -0.000000089273
  9      -0.000000472728
 10      -0.000000104478
 11      -0.000000295216
 12       0.000001030641
 13       0.000000252348
 14       0.000000631578
 15      -0.000034585155
 16      -0.000000179159
 17      -0.000012110005
 18      -0.000061257608
 19       0.000002014125
 20       0.001239941446
 21       0.000007699764
 22       0.000432042117
 23       0.002188729098
 24      -0.000077870686
 25       0.000000000050
 26       0.000000000450
 27       0.000000002550
 28       0.000000000230
 29       0.000000000294
 30      -0.000000001961
 31      -0.000000003108
 Sym=     1a
 Ene= 2.90416520805030E-01
 Spin= Alpha
 Occup= 0.000000
  1      -0.000000051382
  2      -0.000000100698
  3       0.000000047692
  4      -0.000001482467
  5       0.000001487475
  6       0.277571086541
  7      -0.007715317149
  8      -0.028785943823
  9       0.737605864289
 10      -0.020501631012
 11      -0.076494640277
 12      -1.286286785949
 13       0.035780474545
 14       0.133393768491
 15      -0.000000016207
 16       0.000000012557
 17      -0.000000001285
 18       0.000000024435
 19       0.000000006243
 20      -0.000000011257
 21       0.000000008624
 22      -0.000000000829
 23       0.000000016163
 24       0.000000004685
 25       0.000054976733
 26      -0.000216234124
 27       0.000029310354
 28       0.000067369995
 29      -0.000143205067
 30       0.000871629829
 31      -0.000055692349
 Sym=     1a
 Ene= 2.90416822239305E-01
 Spin= Alpha
 Occup= 0.000000
  1      -0.000000040800
  2      -0.000000079654
  3       0.000000044059
  4      -0.000001187909
  5       0.000001184447
  6       0.029400212848
  7       0.026764278844
  8       0.276320743178
  9       0.078127034193
 10       0.071122624221
 11       0.734284417435
 12      -0.136242819708
 13      -0.124016844789
 14      -1.280494292844
 15       0.000000015046
 16       0.000000026510
 17       0.000000008329
 18       0.000000001299
 19       0.000000003126
 20       0.000000009627
 21       0.000000017590
 22       0.000000005780
 23       0.000000000646
 24       0.000000002295
 25      -0.000528161521
 26      -0.000026869102
 27      -0.000242062257
 28      -0.000695756024
 29       0.000010070664
 30       0.000095371995
 31       0.000080665252
 Sym=     1a
 Ene= 2.91770216575197E-01
 Spin= Alpha
 Occup= 0.000000
  1       0.000000016170
  2       0.000000031200
  3      -0.000000007233
  4       0.000000361935
  5      -0.000000305357
  6      -0.005332907173
  7      -0.303130141156
  8       0.029924138883
  9      -0.014356551666
 10      -0.816032433998
 11       0.080556377956
 12       0.022213278409
 13       1.264140733863
 14      -0.124800062992
 15       0.000000009144
 16       0.000000002398
 17      -0.000000014513
 18       0.000000012033
 19      -0.000000026675
 20       0.000000021833
 21       0.000000001183
 22      -0.000000004116
 23       0.000000034945
 24      -0.000000019459
 25       0.000309833044
 26      -0.000022042556
 27      -0.001240180359
 28       0.000402429727
 29      -0.000014257780
 30       0.000088774028
 31       0.001664167815
 Sym=     1a
 Ene= 7.39243204536799E-01
 Spin= Alpha
 Occup= 0.000000
  1       0.000000024955
  2       0.000000094267
  3       0.000000792809
  4      -0.000001365960
  5       0.000000755266
  6      -0.000000170491
  7       0.000000016397
  8       0.000000132571
  9      -0.000000037976
 10       0.000000003318
 11       0.000000032402
 12      -0.000000059931
 13       0.000000006462
 14       0.000000048943
 15       0.009648802676
 16       0.000742615086
 17       0.001086062344
 18      -0.005673055716
 19       0.000273201880
 20      -0.860987975611
 21      -0.066265182995
 22      -0.096915456876
 23       0.506212583809
 24      -0.024379482851
 25      -0.000000023737
 26      -0.000000041971
 27      -0.000000011077
 28       0.000000009604
 29      -0.000000004668
 30      -0.000000023760
 31      -0.000000005466
 Sym=     1a
 Ene= 7.39243208411711E-01
 Spin= Alpha
 Occup= 0.000000
  1      -0.000000003568
  2      -0.000000013645
  3      -0.000000114690
  4       0.000000198000
  5      -0.000000109746
  6      -0.000000123248
  7      -0.000000014776
  8      -0.000000173158
  9      -0.000000025670
 10      -0.000000004066
 11      -0.000000039742
 12      -0.000000042477
 13      -0.000000004469
 14      -0.000000061744
 15       0.000623277474
 16      -0.011192553486
 17       0.000270026265
 18      -0.000405881901
 19      -0.001090657402
 20      -0.055615626864
 21       0.998735776768
 22      -0.024095697625
 23       0.036218680158
 24       0.097318462202
 25      -0.000000029315
 26       0.000000025707
 27      -0.000000002148
 28       0.000000038233
 29       0.000000012122
 30      -0.000000000910
 31      -0.000000004863
 Sym=     1a
 Ene= 7.41587230325105E-01
 Spin= Alpha
 Occup= 0.000000
  1      -0.000000044535
  2      -0.000000144177
  3      -0.000001159568
  4       0.000001876799
  5      -0.000000970431
  6       0.000000042557
  7       0.000000072234
  8      -0.000000014584
  9       0.000000001657
 10       0.000000000184
 11      -0.000000002170
 12       0.000000013987
 13       0.000000010580
 14      -0.000000004399
 15       0.000194271903
 16      -0.001036923125
 17      -0.001107996383
 18       0.000478665584
 19       0.010300398185
 20      -0.018732712808
 21       0.100021586886
 22       0.106875857818
 23      -0.046156181000
 24      -0.993542641547
 25      -0.000000003972
 26       0.000000006304
 27       0.000000011731
 28       0.000000001577
 29      -0.000000015988
 30      -0.000000013022
 31       0.000000045132
 Sym=     1a
 Ene= 7.41587334870051E-01
 Spin= Alpha
 Occup= 0.000000
  1      -0.000000016849
  2      -0.000000052672
  3      -0.000000416063
  4       0.000000669857
  5      -0.000000348580
  6       0.000000003445
  7       0.000000064292
  8       0.000000039712
  9      -0.000000001416
 10       0.000000000689
 11       0.000000004714
 12       0.000000000257
 13       0.000000011578
 14       0.000000015438
 15      -0.001753381906
 16       0.000067963760
 17       0.010162086035
 18      -0.000970983665
 19       0.001178147220
 20       0.169118531427
 21      -0.006553651651
 22      -0.980156244245
 23       0.093660359120
 24      -0.113635381187
 25       0.000000014918
 26       0.000000005661
 27      -0.000000023788
 28       0.000000014580
 29      -0.000000036695
 30      -0.000000005509
 31       0.000000004986
 Sym=     1a
 Ene= 7.47897637050270E-01
 Spin= Alpha
 Occup= 0.000000
  1       0.001126230395
  2       0.004019243538
  3       0.022312173542
  4      -0.028517157096
  5       0.017586863712
  6       0.000000113829
  7      -0.000000023271
  8       0.000000076163
  9      -0.000000002057
 10      -0.000000050671
 11       0.000000004121
 12       0.000000047875
 13       0.000000048330
 14       0.000000026370
 15       0.007881032611
 16       0.000048740433
 17       0.002746349490
 18       0.013912954407
 19      -0.000494438505
 20      -0.489659943297
 21      -0.003030483033
 22      -0.170630520299
 23      -0.864419047233
 24       0.030729804588
 25      -0.000000010341
 26      -0.000000008266
 27      -0.000000014989
 28      -0.000000013695
 29      -0.000000004757
 30       0.000000032877
 31       0.000000012963
 Sym=     1a
 Ene= 1.26166468003557E+00
 Spin= Alpha
 Occup= 0.000000
  1       0.130943478496
  2       0.409745347135
  3       2.862692315275
  4      -3.894214054110
  5       1.650888102009
  6       0.000000850830
  7       0.000000224978
  8       0.000000539402
  9      -0.000001220171
 10      -0.000000325135
 11      -0.000000775271
 12       0.000000558278
 13       0.000000151657
 14       0.000000356168
 15       0.005636346258
 16       0.000034756341
 17       0.001964297240
 18       0.009950792405
 19      -0.000353100467
 20       0.000373014645
 21       0.000002470779
 22       0.000129710859
 23       0.000657550428
 24      -0.000024127012
 25      -0.000000000256
 26      -0.000000000764
 27      -0.000000003520
 28       0.000000000044
 29      -0.000000000162
 30       0.000000002421
 31       0.000000003953
 Sym=     1a
 Ene= 1.42490662668094E+00
 Spin= Alpha
 Occup= 0.000000
  1      -0.000000082709
  2      -0.000000265924
  3      -0.000001838776
  4       0.000002463852
  5      -0.000001032057
  6       1.241920816474
  7      -0.035936760847
  8      -0.140804039314
  9      -1.685639456322
 10       0.048776462838
 11       0.191111080495
 12       0.766598332028
 13      -0.022182700056
 14      -0.086913855625
 15      -0.000000033606
 16       0.000000023679
 17      -0.000000003565
 18       0.000000045039
 19       0.000000014664
 20      -0.000000009762
 21       0.000000010612
 22       0.000000000204
 23       0.000000029148
 24       0.000000006428
 25      -0.000087874254
 26       0.000315901306
 27      -0.000046180166
 28      -0.000108356909
 29       0.000209464373
 30      -0.001273575988
 31       0.000082541925
 Sym=     1a
 Ene= 1.42490756821279E+00
 Spin= Alpha
 Occup= 0.000000
  1      -0.000000069299
  2      -0.000000222743
  3      -0.000001543885
  4       0.000002074651
  5      -0.000000873114
  6       0.143630060684
  7       0.119447737948
  8       1.236360852305
  9      -0.194946686915
 10      -0.162124325956
 11      -1.678091947703
 12       0.088658212465
 13       0.073731164566
 14       0.763165729695
 15       0.000000029229
 16       0.000000051616
 17       0.000000018540
 18       0.000000000713
 19       0.000000006479
 20       0.000000016264
 21       0.000000023150
 22       0.000000009843
 23       0.000000007656
 24       0.000000002691
 25       0.000772549897
 26       0.000042395540
 27       0.000354091865
 28       0.001017697647
 29      -0.000012770066
 30      -0.000151899663
 31      -0.000117281143
 Sym=     1a
 Ene= 1.46412861889317E+00
 Spin= Alpha
 Occup= 0.000000
  1       0.000000020933
  2       0.000000065141
  3       0.000000441503
  4      -0.000000579069
  5       0.000000241827
  6      -0.022354726377
  7      -1.259479462923
  8       0.124278201108
  9       0.029548011351
 10       1.664759070385
 11      -0.164268954050
 12      -0.013300345296
 13      -0.749353746412
 14       0.073941983602
 15       0.000000011505
 16       0.000000003582
 17      -0.000000022971
 18       0.000000013793
 19      -0.000000040101
 20      -0.000000002239
 21       0.000000000985
 22      -0.000000007551
 23      -0.000000005190
 24      -0.000000010258
 25       0.000214633684
 26      -0.000015066365
 27      -0.000858575070
 28       0.000279008130
 29      -0.000009606911
 30       0.000060638212
 31       0.001153263666
 Sym=     1a
 Ene= 2.68858367882578E+00
 Spin= Alpha
 Occup= 0.000000
  1       0.000000000053
  2       0.000000000107
  3       0.000000000457
  4      -0.000000000554
  5       0.000000000346
  6       0.000000023834
  7      -0.000000021336
  8      -0.000000010980
  9      -0.000000039596
 10       0.000000021454
 11       0.000000006067
 12       0.000000017149
 13      -0.000000008699
 14      -0.000000002314
 15       0.000000321245
 16       0.000000201158
 17       0.000000033019
 18      -0.000000187453
 19       0.000000026609
 20      -0.000000208528
 21      -0.000000130593
 22      -0.000000021414
 23       0.000000121739
 24      -0.000000017282
 25       0.063378036245
 26       0.955720206016
 27      -0.009329293615
 28      -0.045778910884
 29       0.120965402099
 30       0.256335773117
 31      -0.007662300487
 Sym=     1a
 Ene= 2.68858369077694E+00
 Spin= Alpha
 Occup= 0.000000
  1       0.000000000036
  2       0.000000000091
  3       0.000000000688
  4      -0.000000001088
  5       0.000000000579
  6      -0.000000004099
  7      -0.000000095542
  8      -0.000000044246
  9       0.000000005690
 10       0.000000092996
 11       0.000000029154
 12      -0.000000001507
 13      -0.000000037636
 14      -0.000000011314
 15       0.000000173626
 16      -0.000000371853
 17       0.000000026684
 18      -0.000000101713
 19      -0.000000033040
 20      -0.000000112639
 21       0.000000241430
 22      -0.000000017313
 23       0.000000066127
 24       0.000000021436
 25       0.776586413876
 26      -0.076319551732
 27       0.095190309086
 28      -0.613208324186
 29       0.012066250573
 30      -0.016970305413
 31       0.074630009669
 Sym=     1a
 Ene= 2.69361016091224E+00
 Spin= Alpha
 Occup= 0.000000
  1       0.000000000008
  2       0.000000000017
  3       0.000000000120
  4      -0.000000000122
  5       0.000000000036
  6      -0.000000074385
  7      -0.000000906583
  8       0.000000128664
  9       0.000000058654
 10       0.000000935422
 11      -0.000000072687
 12      -0.000000023490
 13      -0.000000383905
 14       0.000000025607
 15      -0.000000003891
 16      -0.000000077689
 17      -0.000000323581
 18       0.000000068888
 19       0.000000070927
 20       0.000000000902
 21       0.000000048625
 22       0.000000209744
 23      -0.000000043750
 24      -0.000000046234
 25       0.137287429059
 26       0.095806847967
 27      -0.558848491191
 28       0.010903551315
 29      -0.672013818393
 30      -0.105676082515
 31      -0.443590666765
 Sym=     1a
 Ene= 2.69361017929677E+00
 Spin= Alpha
 Occup= 0.000000
  1      -0.000000000041
  2      -0.000000000079
  3      -0.000000000650
  4       0.000000001171
  5      -0.000000000474
  6       0.000000118499
  7      -0.000000544309
  8       0.000000114639
  9       0.000000020302
 10       0.000000570899
 11       0.000000000765
 12      -0.000000022423
 13      -0.000000235155
 14      -0.000000012045
 15      -0.000000068541
 16       0.000000037814
 17       0.000000071040
 18       0.000000036584
 19       0.000000327244
 20       0.000000042899
 21      -0.000000022665
 22      -0.000000046234
 23      -0.000000022884
 24      -0.000000211924
 25       0.128874369763
 26      -0.121897394968
 27      -0.520797611745
 28       0.058045717905
 29       0.713451798365
 30       0.064642124507
 31      -0.425136320844
 Sym=     1a
 Ene= 2.69933273059870E+00
 Spin= Alpha
 Occup= 0.000000
  1       0.000000000090
  2      -0.000000000332
  3       0.000000001791
  4      -0.000000004224
  5      -0.000000001280
  6      -0.000630268260
  7       0.000018678619
  8       0.000063981386
  9       0.003615068243
 10      -0.000101769547
 11      -0.000367529333
 12      -0.001750993223
 13       0.000049208108
 14       0.000178024440
 15       0.000000032551
 16       0.000000061402
 17       0.000000043556
 18       0.000000250627
 19      -0.000000129295
 20      -0.000000020426
 21      -0.000000040147
 22      -0.000000028071
 23      -0.000000162882
 24       0.000000082023
 25      -0.058959960570
 26       0.236209818506
 27      -0.031242035036
 28      -0.072145486385
 29       0.156309179731
 30      -0.952084695052
 31       0.060370140695
 Sym=     1a
 Ene= 2.69933436154634E+00
 Spin= Alpha
 Occup= 0.000000
  1       0.000000000064
  2      -0.000000000287
  3       0.000000001308
  4      -0.000000003261
  5      -0.000000001045
  6      -0.000065651850
  7      -0.000060382451
  8      -0.000628974092
  9       0.000375824746
 10       0.000348021166
 11       0.003600195800
 12      -0.000182023335
 13      -0.000168592945
 14      -0.001743672751
 15       0.000000159495
 16       0.000000096210
 17      -0.000000087932
 18       0.000000153510
 19      -0.000000008308
 20      -0.000000103273
 21      -0.000000063068
 22       0.000000055442
 23      -0.000000099220
 24       0.000000005039
 25       0.577035731414
 26       0.028893501860
 27       0.264608943786
 28       0.760117262986
 29      -0.011333920034
 30      -0.102307865174
 31      -0.088307400503
 Sym=     1a
 Ene= 2.71129616748818E+00
 Spin= Alpha
 Occup= 0.000000
  1      -0.000000002062
  2      -0.000000002796
  3      -0.000000011566
  4       0.000000000888
  5       0.000000001868
  6       0.000065676040
  7       0.003729456396
  8      -0.000368162573
  9       0.000006592370
 10       0.000332055919
 11      -0.000032565729
 12      -0.000007922665
 13      -0.000429659190
 14       0.000042312468
 15      -0.000000102825
 16       0.000000020927
 17      -0.000000203786
 18      -0.000000222306
 19      -0.000000239433
 20       0.000000057790
 21      -0.000000013567
 22       0.000000128560
 23       0.000000128363
 24       0.000000155108
 25       0.144885267992
 26      -0.010299338383
 27      -0.579922969672
 28       0.188161763561
 29      -0.006677565078
 30       0.041484405557
 31       0.778078570322
 Sym=     1a
 Ene= 2.93172475681259E+00
 Spin= Alpha
 Occup= 0.000000
  1      -0.000000010551
  2       0.000000020290
  3       0.000000239217
  4      -0.000000509907
  5       0.000000303784
  6      -0.000000075529
  7       0.000000007206
  8       0.000000058835
  9       0.000000032896
 10      -0.000000003194
 11      -0.000000026447
 12      -0.000000016349
 13       0.000000001525
 14       0.000000013564
 15      -1.009635049076
 16      -0.091443100913
 17      -0.113422717648
 18       0.593514990946
 19      -0.029939661265
 20       0.528533037456
 21       0.047869477619
 22       0.059375589033
 23      -0.310698766154
 24       0.015673106999
 25       0.000000152112
 26       0.000000285931
 27       0.000000086975
 28      -0.000000065214
 29       0.000000034794
 30       0.000000154487
 31       0.000000047893
 Sym=     1a
 Ene= 2.93172494131259E+00
 Spin= Alpha
 Occup= 0.000000
  1       0.000000001023
  2      -0.000000003651
  3      -0.000000036786
  4       0.000000073983
  5      -0.000000042974
  6      -0.000000057164
  7      -0.000000006349
  8      -0.000000075656
  9       0.000000024856
 10       0.000000002690
 11       0.000000032670
 12      -0.000000012300
 13      -0.000000001398
 14      -0.000000016115
 15      -0.077056248497
 16       1.171121247900
 17      -0.029599658677
 18       0.049440619221
 19       0.113854099831
 20       0.040338118259
 21      -0.613069353439
 22       0.015495113853
 23      -0.025881622418
 24      -0.059601352199
 25       0.000000202149
 26      -0.000000165543
 27       0.000000017827
 28      -0.000000254095
 29      -0.000000097935
 30       0.000000000620
 31       0.000000033832
 Sym=     1a
 Ene= 2.94912642608180E+00
 Spin= Alpha
 Occup= 0.000000
  1      -0.000000047608
  2      -0.000000283836
  3      -0.000002001323
  4       0.000002831850
  5      -0.000001415826
  6       0.000000023226
  7       0.000000052888
  8      -0.000000007939
  9      -0.000000012077
 10      -0.000000027781
 11       0.000000004123
 12       0.000000006445
 13       0.000000004940
 14      -0.000000001290
 15      -0.021054980973
 16       0.117386129890
 17       0.120459964402
 18      -0.053585592831
 19      -1.167115889650
 20       0.011035112876
 21      -0.061521917712
 22      -0.063132792481
 23       0.028084509051
 24       0.611683527721
 25       0.000000025996
 26      -0.000000046152
 27      -0.000000075275
 28      -0.000000011886
 29       0.000000108702
 30       0.000000100638
 31      -0.000000313275
 Sym=     1a
 Ene= 2.94913165964590E+00
 Spin= Alpha
 Occup= 0.000000
  1      -0.000000032003
  2      -0.000000135457
  3      -0.000000925059
  4       0.000001270539
  5      -0.000000620431
  6       0.000000002940
  7       0.000000045706
  8       0.000000018348
  9      -0.000000001558
 10      -0.000000024130
 11      -0.000000009380
 12       0.000000000671
 13       0.000000004981
 14       0.000000006014
 15       0.198699864680
 16      -0.008206798490
 17      -1.151346526048
 18       0.110247692136
 19      -0.128304170136
 20      -0.104138090831
 21       0.004301159156
 22       0.603418491156
 23      -0.057780455727
 24       0.067243958347
 25      -0.000000109037
 26      -0.000000038693
 27       0.000000161774
 28      -0.000000108904
 29       0.000000249208
 30       0.000000038743
 31      -0.000000036202
 Sym=     1a
 Ene= 2.96908128184235E+00
 Spin= Alpha
 Occup= 0.000000
  1       0.001046750738
  2       0.004697162023
  3       0.029888597090
  4      -0.037470805958
  5       0.016927446763
  6       0.000000049028
  7      -0.000000023337
  8       0.000000034783
  9      -0.000000025479
 10       0.000000000957
 11      -0.000000017572
 12       0.000000012204
 13       0.000000000078
 14       0.000000008695
 15      -0.573109544359
 16      -0.003524350795
 17      -0.199763058966
 18      -1.011834442275
 19       0.035822812909
 20       0.298017454933
 21       0.001832608354
 22       0.103877115426
 23       0.526154952537
 24      -0.018627439105
 25       0.000000051157
 26       0.000000055835
 27       0.000000168387
 28       0.000000066925
 29       0.000000031881
 30      -0.000000220917
 31      -0.000000178300
 Sym=     1a
 Ene= 2.15427167705175E+01
 Spin= Alpha
 Occup= 0.000000
  1       1.377209544031
  2      -1.659788209266
  3      -1.296067594334
  4       1.122553256564
  5      -0.411909518472
  6      -0.000000001429
  7       0.000000000059
  8      -0.000000000881
  9       0.000000001653
 10       0.000000000367
 11       0.000000000957
 12      -0.000000000798
 13      -0.000000000179
 14      -0.000000000441
 15      -0.000112519973
 16      -0.000000695182
 17      -0.000039215349
 18      -0.000198640719
 19       0.000007051434
 20      -0.000003259090
 21      -0.000000020930
 22      -0.000001132796
 23      -0.000005749562
 24       0.000000208873
 25       0.000000000020
 26      -0.000000000030
 27      -0.000000000250
 28       0.000000000030
 29      -0.000000000012
 30       0.000000000109
 31       0.000000000311
 Sym=     1a
 Ene= -1.04490918827723E+01
 Spin=Beta
 Occup= 1.000000
  1       0.468157760725
  2       0.610351163171
  3      -0.025091330427
  4       0.012593652428
  5      -0.004014505490
  6      -0.000000005132
  7      -0.000000000516
  8      -0.000000003379
  9       0.000000003996
 10       0.000000000633
 11       0.000000002823
 12      -0.000000001509
 13      -0.000000000286
 14      -0.000000001286
 15       0.000204853008
 16       0.000001268611
 17       0.000071383627
 18       0.000361631694
 19      -0.000012859052
 20      -0.000111501105
 21      -0.000000690470
 22      -0.000038853959
 23      -0.000196835340
 24       0.000006999125
 25      -0.000000000037
 26      -0.000000000044
 27      -0.000000000003
 28      -0.000000000020
 29      -0.000000000014
 30      -0.000000000016
 31       0.000000000011
 Sym=     1a
 Ene= -5.90264537096922E-01
 Spin=Beta
 Occup= 1.000000
  1      -0.109431828115
  2      -0.238194182699
  3      -0.405750519214
  4      -0.485790122179
  5      -0.241724331506
  6       0.000000446920
  7       0.000000229030
  8       0.000000265426
  9       0.000000404252
 10       0.000000215297
 11       0.000000238657
 12       0.000000198872
 13       0.000000077948
 14       0.000000121519
 15       0.003413291521
 16       0.000021137145
 17       0.001189397387
 18       0.006025565067
 19      -0.000214264526
 20       0.007576808993
 21       0.000046927786
 22       0.002640202099
 23       0.013375444415
 24      -0.000475649805
 25      -0.000000001191
 26      -0.000000001154
 27      -0.000000003014
 28      -0.000000002634
 29      -0.000000001157
 30       0.000000005825
 31       0.000000003505
 Sym=     1a
 Ene= -2.11237784791694E-02
 Spin=Beta
 Occup= 0.000000
  1       0.000000035791
  2       0.000000076638
  3       0.000000139353
  4       0.000000019812
  5       0.000000304414
  6       0.006915908202
  7       0.389139999653
  8      -0.038394696535
  9       0.005386187301
 10       0.303065171195
 11      -0.029902066680
 12       0.009229318152
 13       0.519309892600
 14      -0.051237972572
 15       0.000000007007
 16       0.000000000777
 17      -0.000000003229
 18       0.000000010999
 19      -0.000000008709
 20       0.000000003048
 21      -0.000000001180
 22       0.000000010934
 23       0.000000007855
 24       0.000000014343
 25       0.001362122289
 26      -0.000096895311
 27      -0.005452029691
 28       0.001768858354
 29      -0.000062892670
 30       0.000390309724
 31       0.007314385446
 Sym=     1a
 Ene= 5.62519187212711E-03
 Spin=Beta
 Occup= 0.000000
  1      -0.000000060531