[Molden Format]
[Title]
 Molden file created by orca_2mkl for BaseName=cl

[Atoms] AU
Cl   1  17          0.0000000000         0.0000000000         0.0000000000 
[GTO]
  1 0
s   7 1.0 
    85036.4090480000         3.2910669644
    11843.7126120000         3.8302447390
     2582.2355687000         5.4478285897
      711.1475258800         7.7993755137
      227.0816076700         9.6810949044
       79.6177414370         8.4549916762
       29.4031852430         3.2388475197
s   3 1.0 
      129.3581212900        -3.0687436476
       39.8588053900        -5.4051556067
        7.7968458542         4.0855509652
s   2 1.0 
        3.9141574109        -1.3370050386
        1.8515715358        -0.3942980442
s   1 1.0 
        0.5055852178         0.4273226057
s   1 1.0 
        0.1806912052         0.1975208079
p   5 1.0 
      719.6305113200        18.5264989249
      166.0209138600        22.6797258501
       52.7110061010        24.6479348432
       19.5360358560        20.6737077955
        7.7618943192        11.4841700837
p   1 1.0 
        3.1603942091         6.0064333122
p   1 1.0 
        1.1924171377         1.7761324519
p   1 1.0 
        0.4253250707         0.4895998955
p   1 1.0 
        0.1395264543         0.1215516295
d   1 1.0 
        4.6100000000        41.3472569505
d   1 1.0 
        1.0110000000         2.9059263689
d   1 1.0 
        0.3390000000         0.4293579962
f   1 1.0 
        0.7060000000         2.6050175686

[5D]
[7F]
[9G]
[MO]
 Sym=     1a
 Ene= -1.01692859196639E+02
 Spin= Alpha
 Occup= 1.000000
  1      -0.996180111741
  2      -0.022589355073
  3       0.006473378861
  4       0.005479934922
  5      -0.002629007879
  6       0.000000000057
  7      -0.000000000133
  8       0.000000000005
  9      -0.000000000142
 10       0.000000000294
 11      -0.000000000027
 12       0.000000000056
 13      -0.000000000094
 14       0.000000000011
 15       0.000000000028
 16      -0.000000000000
 17       0.000000000034
 18       0.000000000004
 19      -0.000000000004
 20       0.000000000002
 21       0.000004495406
 22      -0.000000018573
 23       0.000000034307
 24       0.000004255762
 25       0.000006520458
 26      -0.000002068757
 27       0.000000008548
 28      -0.000000015789
 29      -0.000001958476
 30      -0.000003000683
 31       0.000000770914
 32      -0.000000003191
 33       0.000000005883
 34       0.000000729817
 35       0.000001118201
 36       0.000000000005
 37       0.000000000002
 38      -0.000000000005
 39       0.000000000004
 40       0.000000000001
 41      -0.000000000007
 42      -0.000000000001
 Sym=     1a
 Ene= -9.66961255241346E+00
 Spin= Alpha
 Occup= 1.000000
  1       0.293625536250
  2      -0.230954176190
  3       0.811790397488
  4      -0.039930113423
  5       0.012851393932
  6      -0.000000006015
  7       0.000000012473
  8      -0.000000000980
  9      -0.000000001956
 10       0.000000003884
 11      -0.000000000272
 12      -0.000000000405
 13       0.000000000945
 14      -0.000000000113
 15      -0.000000000456
 16       0.000000000803
 17      -0.000000000135
 18      -0.000000000206
 19       0.000000000285
 20      -0.000000000058
 21       0.000531762414
 22      -0.000002197083
 23       0.000004058060
 24       0.000503414819
 25       0.000771305808
 26       0.000420795880
 27      -0.000001738693
 28       0.000003211239
 29       0.000398361804
 30       0.000610352029
 31      -0.000145728867
 32       0.000000602133
 33      -0.000001112126
 34      -0.000137959511
 35      -0.000211375416
 36       0.000000000037
 37      -0.000000000005
 38      -0.000000000014
 39      -0.000000000036
 40      -0.000000000007
 41      -0.000000000060
 42       0.000000000022
 Sym=     1a
 Ene= -7.39549212183058E+00
 Spin= Alpha
 Occup= 1.000000
  1      -0.000000005251
  2       0.000000003220
  3      -0.000000014992
  4       0.000000001907
  5      -0.000000002159
  6      -0.322341330262
  7       0.595306603953
  8      -0.001695932507
  9      -0.174419961101
 10       0.322122377414
 11      -0.000917674639
 12      -0.040919432551
 13       0.075570848882
 14      -0.000215289116
 15       0.002370550706
 16      -0.004377981400
 17       0.000012472244
 18      -0.000767330468
 19       0.001417120692
 20      -0.000004037291
 21      -0.000000002398
 22       0.000000000155
 23      -0.000000000309
 24      -0.000000002518
 25      -0.000000003327
 26      -0.000000001163
 27      -0.000000000035
 28      -0.000000000187
 29      -0.000000001213
 30      -0.000000001901
 31       0.000000000342
 32       0.000000000075
 33       0.000000000047
 34       0.000000000307
 35       0.000000000802
 36       0.000001519202
 37       0.000117876007
 38      -0.000217701651
 39       0.000001071947
 40       0.000001642420
 41      -0.000318542633
 42       0.000026175856
 Sym=     1a
 Ene= -7.37332024473079E+00
 Spin= Alpha
 Occup= 1.000000
  1      -0.000000000370
  2       0.000000000236
  3      -0.000000001077
  4      -0.000000000092
  5       0.000000000082
  6      -0.002602158658
  7      -0.003340009453
  8      -0.677825613717
  9      -0.001406898208
 10      -0.001805829113
 11      -0.366477173991
 12      -0.000322052722
 13      -0.000413371913
 14      -0.083890202150
 15       0.000015964499
 16       0.000020491078
 17       0.004158514460
 18      -0.000005155088
 19      -0.000006616533
 20      -0.001342801680
 21       0.000000000389
 22       0.000000001807
 23      -0.000000003908
 24       0.000000000001
 25       0.000000000011
 26       0.000000000158
 27       0.000000000901
 28      -0.000000001882
 29       0.000000000021
 30      -0.000000000015
 31      -0.000000000041
 32      -0.000000000232
 33       0.000000000485
 34      -0.000000000004
 35       0.000000000007
 36       0.000194730267
 37      -0.000000643016
 38       0.000002143109
 39       0.000137396799
 40       0.000210532197
 41       0.000000624542
 42      -0.000001819112
 Sym=     1a
 Ene= -7.37332023585806E+00
 Spin= Alpha
 Occup= 1.000000
  1       0.000000000249
  2      -0.000000000125
  3       0.000000000799
  4       0.000000000243
  5      -0.000000000134
  6      -0.596061922435
  7      -0.322739262711
  8       0.003878578356
  9      -0.322270335148
 10      -0.174494104301
 11       0.002097015073
 12      -0.073770825961
 13      -0.039943403001
 14       0.000480027225
 15       0.003656887705
 16       0.001980031359
 17      -0.000023795419
 18      -0.001180824748
 19      -0.000639360314
 20       0.000007683625
 21       0.000000000152
 22       0.000000000285
 23       0.000000000176
 24       0.000000003459
 25      -0.000000002582
 26       0.000000000063
 27       0.000000000110
 28       0.000000000087
 29       0.000000001648
 30      -0.000000001238
 31      -0.000000000041
 32      -0.000000000024
 33      -0.000000000025
 34      -0.000000000415
 35       0.000000000340
 36      -0.000001114325
 37       0.000069912863
 38       0.000037844742
 39      -0.000001840968
 40      -0.000000516162
 41      -0.000025218287
 42      -0.000306868310
 Sym=     1a
 Ene= -9.62790979528037E-01
 Spin= Alpha
 Occup= 1.000000
  1      -0.091258706820
  2       0.085492602941
  3      -0.512950756624
  4      -0.710562228059
  5      -0.490286730337
  6       0.000000006731
  7      -0.000000014322
  8       0.000000000633
  9       0.000000002436
 10      -0.000000005109
 11       0.000000000078
 12      -0.000000003987
 13       0.000000008092
 14       0.000000000002
 15      -0.000000015850
 16       0.000000034505
 17      -0.000000001443
 18      -0.000000026209
 19       0.000000054050
 20      -0.000000003631
 21       0.000992106690
 22      -0.000004099836
 23       0.000007571143
 24       0.000939209067
 25       0.001439021836
 26       0.007430283513
 27      -0.000030702734
 28       0.000056703127
 29       0.007034136004
 30       0.010777408719
 31       0.008386202329
 32      -0.000034653520
 33       0.000063998251
 34       0.007939081089
 35       0.012163941090
 36       0.000000004132
 37       0.000000001407
 38       0.000000001514
 39      -0.000000001633
 40       0.000000004043
 41       0.000000009235
 42      -0.000000000353
 Sym=     1a
 Ene= -5.00190422781923E-01
 Spin= Alpha
 Occup= 1.000000
  1      -0.000000008779
  2       0.000000007121
  3      -0.000000049949
  4      -0.000000075063
  5      -0.000000034371
  6      -0.097576518202
  7       0.180206136518
  8      -0.000513377182
  9      -0.058393618734
 10       0.107842428585
 11      -0.000307225034
 12       0.104779771934
 13      -0.193509237936
 14       0.000551275627
 15       0.281652016509
 16      -0.520160220578
 17       0.001481849010
 18       0.172927497360
 19      -0.319365731502
 20       0.000909820271
 21       0.000000001805
 22      -0.000000000118
 23       0.000000000564
 24       0.000000001740
 25       0.000000002715
 26       0.000000015149
 27      -0.000000001436
 28       0.000000002593
 29       0.000000014839
 30       0.000000021893
 31       0.000000021688
 32      -0.000000000799
 33       0.000000005445
 34       0.000000022488
 35       0.000000033276
 36      -0.000052384634
 37      -0.004064697227
 38       0.007506743471
 39      -0.000036958409
 40      -0.000056632271
 41       0.010983899659
 42      -0.000902462292
 Sym=     1a
 Ene= -4.56167891208291E-01
 Spin= Alpha
 Occup= 1.000000
  1       0.000000000589
  2      -0.000000000248
  3       0.000000003750
  4       0.000000007715
  5      -0.000000001704
  6      -0.008954596583
  7      -0.004273928997
  8       0.201742734060
  9      -0.005369816422
 10      -0.002562953441
 11       0.120979367998
 12       0.009762640888
 13       0.004659599488
 14      -0.219947583719
 15       0.025276508642
 16       0.012064195558
 17      -0.569467520919
 18       0.017189523633
 19       0.008204367549
 20      -0.387271652043
 21       0.000000000048
 22       0.000000001691
 23      -0.000000003305
 24      -0.000000000397
 25      -0.000000000059
 26       0.000000001244
 27       0.000000011996
 28      -0.000000024095
 29      -0.000000001859
 30       0.000000000134
 31       0.000000001760
 32       0.000000019359
 33      -0.000000039984
 34      -0.000000004212
 35       0.000000000490
 36       0.006924023215
 37      -0.000159186285
 38       0.000002389411
 39       0.004887543159
 40       0.007484481391
 41       0.000071373893
 42       0.000533706715
 Sym=     1a
 Ene= -4.56167887137154E-01
 Spin= Alpha
 Occup= 1.000000
  1       0.000000000396
  2      -0.000000000513
  3       0.000000001950
  4       0.000000001991
  5       0.000000003453
  6      -0.177393988929
  7      -0.096082047397
  8      -0.009909350663
  9      -0.106378117947
 10      -0.057617666048
 11      -0.005942355061
 12       0.193401658544
 13       0.104752292671
 14       0.010803550216
 15       0.500737308966
 16       0.271214755586
 17       0.027971531579
 18       0.340531039084
 19       0.184442097850
 20       0.019022298535
 21       0.000000000001
 22      -0.000000000147
 23      -0.000000000033
 24      -0.000000002655
 25       0.000000001842
 26      -0.000000000313
 27      -0.000000001730
 28       0.000000000135
 29      -0.000000020634
 30       0.000000014960
 31      -0.000000000772
 32      -0.000000001929
 33      -0.000000000766
 34      -0.000000030786
 35       0.000000022334
 36      -0.000340102150
 37      -0.002483914081
 38      -0.001349310914
 39      -0.000202469825
 40      -0.000392168852
 41       0.000895184028
 42       0.010911509274
 Sym=     1a
 Ene= 4.43417417946571E-01
 Spin= Alpha
 Occup= 0.000000
  1      -0.000000017466
  2       0.000000009859
  3      -0.000000113447
  4      -0.000000373253
  5       0.000000311709
  6       0.076091002395
  7      -0.140526274116
  8       0.000400336574
  9       0.024489872367
 10      -0.045228350790
 11       0.000128848115
 12      -0.016991059391
 13       0.031379403261
 14      -0.000089394465
 15      -0.537528152265
 16       0.992716959280
 17      -0.002828091160
 18       0.640248629766
 19      -1.182423045379
 20       0.003368532981
 21       0.000000014442
 22      -0.000000003504
 23       0.000000009550
 24       0.000000019962
 25       0.000000019079
 26       0.000000053128
 27      -0.000000010642
 28       0.000000028112
 29       0.000000068638
 30       0.000000071378
 31       0.000000137582
 32      -0.000000037083
 33       0.000000103162
 34       0.000000197098
 35       0.000000180120
 36       0.000025075143
 37       0.001945654523
 38      -0.003593277112
 39       0.000017693165
 40       0.000027108909
 41      -0.005257706712
 42       0.000431998152
 Sym=     1a
 Ene= 4.58257927079901E-01
 Spin= Alpha
 Occup= 0.000000
  1       0.004815563646
  2      -0.004180911597
  3       0.029988953780
  4       0.076247227719
  5      -0.035196099653
  6      -0.000000037503
  7       0.000000035578
  8       0.000000016326
  9      -0.000000010709
 10       0.000000009926
 11       0.000000004963
 12       0.000000005271
 13      -0.000000005500
 14      -0.000000002607
 15       0.000000279875
 16      -0.000000273893
 17      -0.000000115023
 18      -0.000000369018
 19       0.000000394094
 20       0.000000132551
 21       0.038641041847
 22      -0.000159671348
 23       0.000294882614
 24       0.036580976033
 25       0.056047640119
 26       0.112529183313
 27      -0.000464989017
 28       0.000858747174
 29       0.106529888052
 30       0.163220110264
 31       0.415097904884
 32      -0.001715252170
 33       0.003167748465
 34       0.392967618648
 35       0.602086715402
 36       0.000000001077
 37       0.000000005678
 38      -0.000000011207
 39       0.000000000812
 40       0.000000001188
 41      -0.000000016120
 42       0.000000002753
 Sym=     1a
 Ene= 4.64669277694944E-01
 Spin= Alpha
 Occup= 0.000000
  1       0.000000002238
  2      -0.000000001450
  3       0.000000014309
  4       0.000000044108
  5      -0.000000033114
  6       0.015441639475
  7       0.007901986347
  8      -0.161197136543
  9       0.004695659130
 10       0.002402920731
 11      -0.049018553488
 12      -0.002600107212
 13      -0.001330559364
 14       0.027142836415
 15      -0.109557688145
 16      -0.056064211846
 17       1.143685916079
 18       0.127793932430
 19       0.065396287582
 20      -1.334056271106
 21       0.000000007082
 22       0.000000067351
 23      -0.000000130857
 24      -0.000000026490
 25       0.000000025057
 26       0.000000021482
 27       0.000000201932
 28      -0.000000392939
 29      -0.000000077888
 30       0.000000073640
 31       0.000000074440
 32       0.000000712168
 33      -0.000001383822
 34      -0.000000283203
 35       0.000000267804
 36      -0.003418315071
 37       0.000150328437
 38       0.000037666328
 39      -0.002414008577
 40      -0.003694301857
 41      -0.000061109649
 42      -0.000578396734
 Sym=     1a
 Ene= 4.64669280209164E-01
 Spin= Alpha
 Occup= 0.000000
  1      -0.000000001320
  2       0.000000000854
  3      -0.000000008480
  4      -0.000000025720
  5       0.000000018907
  6      -0.141730678561
  7      -0.076792555535
  8      -0.017341299043
  9      -0.043098983771
 10      -0.023351903498
 11      -0.005273328212
 12       0.023865019106
 13       0.012930550809
 14       0.002919977964
 15       1.005572333049
 16       0.544839480211
 17       0.123035680963
 18      -1.172953219249
 19      -0.635529840328
 20      -0.143515382973
 21      -0.000000004043
 22      -0.000000002178
 23       0.000000007790
 24       0.000000091046
 25      -0.000000065907
 26      -0.000000011215
 27      -0.000000004786
 28       0.000000021322
 29       0.000000276211
 30      -0.000000200636
 31      -0.000000044824
 32      -0.000000026249
 33       0.000000086263
 34       0.000000954292
 35      -0.000000695314
 36      -0.000367736210
 37      -0.001225203699
 38      -0.000668121329
 39      -0.000240963944
 40      -0.000409651495
 41       0.000441154300
 42       0.005386949872
 Sym=     1a
 Ene= 4.68226201995626E-01
 Spin= Alpha
 Occup= 0.000000
  1      -0.000000000002
  2       0.000000000067
  3       0.000000000153
  4       0.000000001830
  5      -0.000000002876
  6      -0.000000031360
  7      -0.000000038072
  8       0.000000291385
  9      -0.000000009352
 10      -0.000000012044
 11       0.000000086482
 12       0.000000004759
 13       0.000000007966
 14      -0.000000043183
 15       0.000000222087
 16       0.000000271776
 17      -0.000002099732
 18      -0.000000254812
 19      -0.000000328612
 20       0.000002521877
 21       0.000335608659
 22       0.036830766087
 23      -0.068013405114
 24       0.001093216415
 25      -0.000482132699
 26       0.000971661824
 27       0.106633256366
 28      -0.196914009317
 29       0.003165105639
 30      -0.001395881604
 31       0.003608865010
 32       0.396048281783
 33      -0.731361629843
 34       0.011755571344
 35      -0.005184467545
 36      -0.000000006972
 37       0.000000000485
 38      -0.000000001840
 39      -0.000000005558
 40      -0.000000007068
 41      -0.000000000540
 42       0.000000001906
 Sym=     1a
 Ene= 4.68226216158055E-01
 Spin= Alpha
 Occup= 0.000000
  1      -0.000000009116
  2       0.000000007561
  3      -0.000000056059
  4      -0.000000149439
  5       0.000000083787
  6       0.000000197015
  7       0.000000121309
  8      -0.000000053818
  9       0.000000057854
 10       0.000000036577
 11      -0.000000016366
 12      -0.000000027723
 13      -0.000000018882
 14       0.000000009175
 15      -0.000001422547
 16      -0.000000873730
 17       0.000000383183
 18       0.000001714059
 19       0.000001053223
 20      -0.000000450854
 21      -0.000005139582
 22      -0.000390984769
 23       0.001129016460
 24       0.064769536885
 25      -0.042277020502
 26      -0.000014912723
 27      -0.001131987654
 28       0.003268755337
 29       0.187522278455
 30      -0.122401438825
 31      -0.000055461364
 32      -0.004204333170
 33       0.012140539567
 34       0.696479638882
 35      -0.454613277714
 36      -0.000000000968
 37      -0.000000003003
 38      -0.000000001523
 39       0.000000000233
 40      -0.000000001577
 41       0.000000002553
 42       0.000000012839
 Sym=     1a
 Ene= 5.00204448417107E-01
 Spin= Alpha
 Occup= 0.000000
  1      -0.000000000380
  2       0.000000000240
  3      -0.000000002030
  4      -0.000000005246
  5       0.000000003976
  6       0.000000001258
  7       0.000000002636
  8      -0.000000004529
  9       0.000000000535
 10       0.000000000917
 11      -0.000000001389
 12      -0.000000000366
 13      -0.000000000973
 14       0.000000000864
 15      -0.000000008180
 16      -0.000000018311
 17       0.000000033128
 18       0.000000006583
 19       0.000000022226
 20      -0.000000043023
 21      -0.066964577505
 22       0.001061781406
 23       0.000354642007
 24       0.021129124892
 25       0.032378219214
 26      -0.189197530800
 27       0.002999890630
 28       0.001001983852
 29       0.059696917371
 30       0.091479376589
 31      -0.723987990627
 32       0.011479455592
 33       0.003834218121
 34       0.228437742573
 35       0.350057216158
 36      -0.000000001445
 37      -0.000000005751
 38       0.000000012690
 39       0.000000000397
 40       0.000000000146
 41      -0.000000010695
 42       0.000000001348
 Sym=     1a
 Ene= 5.00204454629228E-01
 Spin= Alpha
 Occup= 0.000000
  1       0.000000000098
  2      -0.000000000074
  3       0.000000000735
  4       0.000000002459
  5      -0.000000001844
  6       0.000000001532
  7       0.000000003959
  8      -0.000000005525
  9       0.000000000400
 10       0.000000001288
 11      -0.000000001728
 12      -0.000000000044
 13      -0.000000001080
 14       0.000000001213
 15      -0.000000011456
 16      -0.000000028761
 17       0.000000039314
 18       0.000000015310
 19       0.000000037943
 20      -0.000000049044
 21       0.000954837905
 22       0.067994832348
 23       0.036820449198
 24      -0.000463526237
 25      -0.000355779765
 26       0.002697739421
 27       0.192108335289
 28       0.104030228252
 29      -0.001309617908
 30      -0.001005197438
 31       0.010323237109
 32       0.735126526507
 33       0.398084750957
 34      -0.005011416890
 35      -0.003846512745
 36       0.000000000534
 37       0.000000001363
 38       0.000000000546
 39       0.000000014204
 40      -0.000000010446
 41       0.000000000161
 42      -0.000000000269
 Sym=     1a
 Ene= 5.84796983031057E-01
 Spin= Alpha
 Occup= 0.000000
  1      -0.095124979156
  2       0.058065688400
  3      -0.622819319715
  4      -2.129225586309
  5       1.852543729571
  6      -0.000000010413
  7       0.000000022180
  8      -0.000000001893
  9       0.000000000179
 10       0.000000000151
 11      -0.000000000176
 12      -0.000000011614
 13       0.000000024002
 14      -0.000000001248
 15       0.000000096982
 16      -0.000000207912
 17       0.000000017829
 18      -0.000000109813
 19       0.000000232579
 20      -0.000000022178
 21       0.002490867358
 22      -0.000010292513
 23       0.000019008534
 24       0.002358064065
 25       0.003612931001
 26       0.017748857304
 27      -0.000073340380
 28       0.000135447389
 29       0.016802555554
 30       0.025744202670
 31      -0.000901919301
 32       0.000003728063
 33      -0.000006884310
 34      -0.000853845632
 35      -0.001308204866
 36       0.000000000058
 37      -0.000000000081
 38       0.000000000190
 39       0.000000000070
 40       0.000000000145
 41       0.000000000501
 42      -0.000000000159
 Sym=     1a
 Ene= 1.73410440416948E+00
 Spin= Alpha
 Occup= 0.000000
  1      -0.002759737901
  2       0.001559686537
  3      -0.018670057887
  4      -0.059200843443
  5       0.043946768907
  6      -0.000000003541
  7       0.000000005961
  8       0.000000000092
  9      -0.000000008410
 10       0.000000014235
 11       0.000000000509
 12       0.000000036880
 13      -0.000000062866
 14      -0.000000002335
 15      -0.000000039247
 16       0.000000067818
 17       0.000000003195
 18       0.000000024941
 19      -0.000000043463
 20      -0.000000001974
 21      -0.079420746104
 22       0.000328184438
 23      -0.000606092619
 24      -0.075186816548
 25      -0.115197231946
 26      -0.564114199458
 27       0.002331044450
 28      -0.004304987853
 29      -0.534041018639
 30      -0.818229466379
 31       0.460496866342
 32      -0.001902874961
 33       0.003514241380
 34       0.435947598058
 35       0.667935864826
 36      -0.000000001203
 37      -0.000000008610
 38       0.000000016749
 39      -0.000000000767
 40      -0.000000001225
 41       0.000000024030
 42      -0.000000003363
 Sym=     1a
 Ene= 1.74588141638303E+00
 Spin= Alpha
 Occup= 0.000000
  1       0.000000000117
  2      -0.000000000097
  3       0.000000000647
  4       0.000000001826
  5      -0.000000001480
  6       0.000000000352
  7      -0.000000000293
  8       0.000000005308
  9       0.000000000839
 10      -0.000000000523
 11       0.000000014363
 12      -0.000000003365
 13       0.000000002034
 14      -0.000000061948
 15       0.000000003231
 16      -0.000000001156
 17       0.000000068003
 18      -0.000000002227
 19       0.000000000727
 20      -0.000000044580
 21      -0.000691105334
 22      -0.075847206489
 23       0.140054959128
 24      -0.003489886178
 25       0.001801287353
 26      -0.004896715980
 27      -0.537403325088
 28       0.992337561975
 29      -0.024727042134
 30       0.012762740208
 31       0.003989348691
 32       0.437821835109
 33      -0.808456144262
 34       0.020145089940
 35      -0.010397787993
 36       0.000000018126
 37      -0.000000000863
 38       0.000000001878
 39       0.000000013746
 40       0.000000018717
 41       0.000000000063
 42      -0.000000000820
 Sym=     1a
 Ene= 1.74588144648685E+00
 Spin= Alpha
 Occup= 0.000000
  1       0.000000009389
  2      -0.000000005393
  3       0.000000060947
  4       0.000000188826
  5      -0.000000142363
  6       0.000000004741
  7       0.000000002537
  8      -0.000000000093
  9       0.000000012459
 10       0.000000007680
 11      -0.000000000225
 12      -0.000000054182
 13      -0.000000031863
 14       0.000000001077
 15       0.000000059805
 16       0.000000034877
 17      -0.000000001080
 18      -0.000000039496
 19      -0.000000022803
 20       0.000000000603
 21       0.000017073333
 22       0.001509437281
 23      -0.003625636887
 24      -0.133374669377
 25       0.087062399024
 26       0.000121143991
 27       0.010694876907
 28      -0.025688885984
 29      -0.945005367503
 30       0.616867113740
 31      -0.000098671186
 32      -0.008713103295
 33       0.020928702364
 34       0.769894666960
 35      -0.502560838169
 36      -0.000000000368
 37       0.000000006633
 38       0.000000003895
 39      -0.000000001641
 40       0.000000000445
 41      -0.000000003893
 42      -0.000000028700
 Sym=     1a
 Ene= 1.78298003124163E+00
 Spin= Alpha
 Occup= 0.000000
  1      -0.000000000454
  2       0.000000000292
  3      -0.000000002284
  4      -0.000000005720
  5       0.000000004550
  6       0.000000000307
  7       0.000000000307
  8       0.000000000360
  9       0.000000000622
 10       0.000000000656
 11       0.000000000905
 12      -0.000000003233
 13      -0.000000002411
 14      -0.000000004021
 15       0.000000003447
 16       0.000000002277
 17       0.000000004294
 18      -0.000000001739
 19      -0.000000001234
 20      -0.000000002690
 21      -0.139206812743
 22       0.001827740887
 23       0.000531744889
 24       0.043924458865
 25       0.067307590813
 26      -0.977720415341
 27       0.012837155061
 28       0.003734718130
 29       0.308503929463
 30       0.472735419151
 31       0.792932131747
 32      -0.010410944429
 33      -0.003028859280
 34      -0.250196954180
 35      -0.383388863293
 36      -0.000000001925
 37      -0.000000008863
 38       0.000000019208
 39       0.000000000506
 40       0.000000000271
 41      -0.000000016571
 42       0.000000002186
 Sym=     1a
 Ene= 1.78298004955000E+00
 Spin= Alpha
 Occup= 0.000000
  1       0.000000000052
  2      -0.000000000024
  3       0.000000000508
  4       0.000000001947
  5      -0.000000001365
  6      -0.000000000449
  7      -0.000000000081
  8       0.000000000323
  9      -0.000000001000
 10      -0.000000000316
 11       0.000000000823
 12       0.000000004182
 13       0.000000001718
 14      -0.000000003628
 15      -0.000000004315
 16      -0.000000001859
 17       0.000000003808
 18       0.000000002743
 19       0.000000000860
 20      -0.000000001985
 21       0.001611183550
 22       0.141348959618
 23       0.076541987561
 24      -0.000845644169
 25      -0.000558895538
 26       0.011316163875
 27       0.992765739762
 28       0.537593587144
 29      -0.005939389663
 30      -0.003925406405
 31      -0.009177418997
 32      -0.805133909933
 33      -0.435988852560
 34       0.004816850292
 35       0.003183508315
 36       0.000000000979
 37       0.000000001861
 38       0.000000000642
 39       0.000000021624
 40      -0.000000015872
 41       0.000000000125
 42      -0.000000000188
 Sym=     1a
 Ene= 2.09276233308800E+00
 Spin= Alpha
 Occup= 0.000000
  1      -0.000000000983
  2       0.000000000872
  3      -0.000000005636
  4      -0.000000009175
  5      -0.000000002590
  6      -0.005737141849
  7       0.010597836322
  8      -0.000030204597
  9      -0.006735267690
 10       0.012441365822
 11      -0.000035457724
 12       0.026446996221
 13      -0.048852910657
 14       0.000139231296
 15      -0.015437149798
 16       0.028514739781
 17      -0.000081264798
 18       0.006472125287
 19      -0.011955096362
 20       0.000034070085
 21      -0.000000004196
 22      -0.000000000164
 23       0.000000000256
 24      -0.000000003805
 25      -0.000000006337
 26      -0.000000018260
 27      -0.000000000768
 28       0.000000001176
 29      -0.000000016561
 30      -0.000000027703
 31       0.000000004087
 32       0.000000000214
 33      -0.000000000334
 34       0.000000003779
 35       0.000000006439
 36       0.003757063245
 37       0.291399742128
 38      -0.538256676907
 39       0.002651030516
 40       0.004061858099
 41      -0.787566561196
 42       0.064833375063
 Sym=     1a
 Ene= 2.10013383277477E+00
 Spin= Alpha
 Occup= 0.000000
  1       0.000000000424
  2      -0.000000000397
  3       0.000000002367
  4       0.000000003473
  5       0.000000001914
  6      -0.000121228451
  7      -0.000090525786
  8      -0.008737082560
  9      -0.000130468215
 10      -0.000097424378
 11      -0.009402982332
 12       0.000516924012
 13       0.000386001757
 14       0.037255283833
 15      -0.000263983906
 16      -0.000197119318
 17      -0.019025554568
 18       0.000116184504
 19       0.000086758108
 20       0.008373508191
 21      -0.000000000358
 22       0.000000004030
 23      -0.000000007141
 24      -0.000000000029
 25      -0.000000000333
 26      -0.000000001657
 27       0.000000017786
 28      -0.000000031352
 29      -0.000000000130
 30      -0.000000001500
 31       0.000000000489
 32      -0.000000004294
 33       0.000000007282
 34      -0.000000000021
 35       0.000000000368
 36       0.612126270907
 37       0.000486281169
 38       0.008094591323
 39       0.431807161455
 40       0.661860627407
 41       0.001057925233
 42      -0.016726925542
 Sym=     1a
 Ene= 2.10013471543085E+00
 Spin= Alpha
 Occup= 0.000000
  1       0.000000000030
  2      -0.000000000021
  3       0.000000000155
  4       0.000000000353
  5      -0.000000000178
  6      -0.007684041161
  7      -0.004158457285
  8       0.000149702850
  9      -0.008269762111
 10      -0.004475257759
 11       0.000161112323
 12       0.032765336306
 13       0.017731352800
 14      -0.000638339001
 15      -0.016732889183
 16      -0.009054581819
 17       0.000325987493