[Molden Format]
[Title]
 Molden file created by orca_2mkl for BaseName=f

[Atoms] AU
F    1   9          0.0000000000         0.0000000000         0.0000000000 
[GTO]
  1 0
s   6 1.0 
    35721.6726210000        -1.7120668747
     5293.7357902000        -2.2425724843
     1212.1233905000        -3.4656312969
      342.9128636400        -5.2926794515
      112.4260358200        -7.1588981842
       40.9175452820        -7.7944347195
s   2 1.0 
       16.2621987420        -3.5851648302
        6.6517722909        -1.2188290636
s   1 1.0 
        1.5555333785         0.9927035916
s   1 1.0 
        0.6173685080         0.4963847682
s   1 1.0 
        0.2400998300         0.2444578465
p   4 1.0 
       80.3933378580         4.2874519701
       18.5928658930         4.7325233941
        5.6864847621         4.0873122529
        1.9512846036         2.2989047665
p   1 1.0 
        0.6698295680         0.8637647587
p   1 1.0 
        0.2165005206         0.2105056560
d   1 1.0 
        3.1070000000        20.7284714039
d   1 1.0 
        0.8550000000         2.1672588463
f   1 1.0 
        1.9170000000        24.6547062912

[5D]
[7F]
[9G]
[MO]
 Sym=     1a
 Ene= -2.50040983278961E+01
 Spin= Alpha
 Occup= 1.000000
  1      -0.421854144993
  2      -0.653088112111
  3       0.028761107380
  4      -0.011555887027
  5       0.003459453184
  6      -0.000000001965
  7       0.000000000448
  8      -0.000000001949
  9       0.000000002298
 10       0.000000000277
 11       0.000000002985
 12      -0.000000000216
 13       0.000000000117
 14      -0.000000000173
 15       0.000129212075
 16       0.000050611642
 17       0.000454800428
 18      -0.000224841428
 19       0.000050669495
 20      -0.000043099203
 21      -0.000016881656
 22      -0.000151700479
 23       0.000074996758
 24      -0.000016900934
 25       0.000000000018
 26       0.000000000022
 27       0.000000000008
 28      -0.000000000029
 29      -0.000000000000
 30      -0.000000000006
 31       0.000000000008
 Sym=     1a
 Ene= -1.36262174385666E+00
 Spin= Alpha
 Occup= 1.000000
  1      -0.107731512835
  2      -0.269774337804
  3      -0.392656933970
  4      -0.527388842994
  5      -0.220881057662
  6      -0.000000018875
  7      -0.000000062703
  8      -0.000000076675
  9      -0.000000010878
 10      -0.000000049361
 11      -0.000000055662
 12      -0.000000017829
 13      -0.000000002682
 14      -0.000000023570
 15      -0.001292033269
 16      -0.000506073314
 17      -0.004547694645
 18       0.002248261888
 19      -0.000506651806
 20      -0.003025473550
 21      -0.001184968766
 22      -0.010649058592
 23       0.005264614710
 24      -0.001186324026
 25       0.000000000167
 26      -0.000000000319
 27      -0.000000001275
 28       0.000000001206
 29      -0.000000000395
 30      -0.000000000413
 31      -0.000000000367
 Sym=     1a
 Ene= -6.68033444106100E-01
 Spin= Alpha
 Occup= 1.000000
  1      -0.000000014444
  2      -0.000000036487
  3      -0.000000053699
  4      -0.000000032200
  5      -0.000000110464
  6       0.042033623240
  7       0.377668014898
  8       0.377236605229
  9       0.033920260424
 10       0.304771671470
 11       0.304423531567
 12       0.018311925395
 13       0.164525918231
 14       0.164337978987
 15      -0.000000004755
 16      -0.000000004776
 17      -0.000000000747
 18      -0.000000002970
 19      -0.000000004109
 20      -0.000000006093
 21      -0.000000008341
 22       0.000000009500
 23      -0.000000012266
 24      -0.000000006162
 25      -0.001241500910
 26       0.000484366900
 27       0.004352449205
 28      -0.004558586890
 29       0.001027337476
 30       0.000627232069
 31       0.001816437312
 Sym=     1a
 Ene= -5.92181305009867E-01
 Spin= Alpha
 Occup= 1.000000
  1       0.000000002837
  2       0.000000007334
  3       0.000000013251
  4       0.000000014248
  5      -0.000000001531
  6      -0.007596999783
  7       0.371441575578
  8      -0.371019857592
  9      -0.006070658639
 10       0.296813891513
 11      -0.296476899765
 12      -0.003818902521
 13       0.186718296755
 14      -0.186506314731
 15       0.000000002202
 16       0.000000004289
 17      -0.000000005314
 18      -0.000000002233
 19      -0.000000004221
 20      -0.000000005339
 21       0.000000006523
 22      -0.000000010026
 23      -0.000000008862
 24      -0.000000005805
 25      -0.003554938423
 26      -0.000571305444
 27      -0.003414088554
 28      -0.001566922656
 29      -0.000063031154
 30       0.000382306897
 31       0.001874501842
 Sym=     1a
 Ene= -5.92181260306635E-01
 Spin= Alpha
 Occup= 1.000000
  1       0.000000003037
  2       0.000000007851
  3       0.000000014305
  4       0.000000014610
  5      -0.000000000800
  6      -0.523379069879
  7       0.023773486452
  8       0.034517214554
  9      -0.418225076190
 10       0.018997185192
 11       0.027582351893
 12      -0.263095163120
 13       0.011950190074
 14       0.017350907583
 15      -0.000000003961
 16       0.000000004099
 17       0.000000000174
 18       0.000000006032
 19      -0.000000003544
 20      -0.000000007899
 21       0.000000002086
 22       0.000000001904
 23       0.000000013037
 24      -0.000000014463
 25       0.000330658054
 26      -0.001996890713
 27       0.000545753207
 28      -0.000821997622
 29      -0.004288387833
 30      -0.002602234617
 31       0.000711884079
 Sym=     1a
 Ene= 5.47925507565155E-01
 Spin= Alpha
 Occup= 0.000000
  1      -0.056300373308
  2      -0.124748090535
  3       0.069680629358
  4      -1.791473904568
  5       1.970664409032
  6      -0.000000098262
  7      -0.000000352212
  8      -0.000000420497
  9      -0.000000202528
 10      -0.000000762486
 11      -0.000000898340
 12       0.000000404151
 13       0.000001586817
 14       0.000001848521
 15      -0.001020985810
 16      -0.000399975624
 17      -0.003593682173
 18       0.001776614227
 19      -0.000400432941
 20       0.000199874831
 21       0.000078302044
 22       0.000703533860
 23      -0.000347801564
 24       0.000078391752
 25       0.000000000676
 26      -0.000000000549
 27      -0.000000003288
 28       0.000000003092
 29      -0.000000001062
 30      -0.000000000616
 31      -0.000000001127
 Sym=     1a
 Ene= 5.73268616848446E-01
 Spin= Alpha
 Occup= 0.000000
  1       0.000000113008
  2       0.000000249390
  3      -0.000000148467
  4       0.000003580386
  5      -0.000003908226
  6      -0.022375937157
  7      -0.201045450714
  8      -0.200815788596
  9      -0.048272074920
 10      -0.433723162601
 11      -0.433227705505
 12       0.097093297310
 13       0.872383525923
 14       0.871386973883
 15      -0.000000000699
 16      -0.000000000843
 17       0.000000000546
 18      -0.000000000883
 19      -0.000000000690
 20      -0.000000000795
 21      -0.000000000222
 22      -0.000000003075
 23       0.000000001600
 24      -0.000000000353
 25       0.000468998748
 26      -0.000183000348
 27      -0.001644197350
 28       0.001722065548
 29      -0.000388142574
 30      -0.000236976785
 31      -0.000686178644
 Sym=     1a
 Ene= 5.99706882025659E-01
 Spin= Alpha
 Occup= 0.000000
  1      -0.000000008142
  2      -0.000000017451
  3       0.000000016479
  4      -0.000000279247
  5       0.000000310484
  6       0.005473682062
  7      -0.206321719673
  8       0.205947782607
  9       0.011941567074
 10      -0.450118361228
 11       0.449302560451
 12      -0.023181063775
 13       0.873773329994
 14      -0.872189682831
 15       0.000000006099
 16       0.000000001305
 17      -0.000000001651
 18       0.000000003169
 19      -0.000000001234
 20       0.000000002680
 21       0.000000000182
 22       0.000000000291
 23       0.000000001440
 24      -0.000000000198
 25       0.001445722038
 26       0.000235979550
 27       0.001388043737
 28       0.000638940100
 29       0.000033177700
 30      -0.000150998259
 31      -0.000763878492
 Sym=     1a
 Ene= 5.99706901276592E-01
 Spin= Alpha
 Occup= 0.000000
  1      -0.000000008930
  2      -0.000000019282
  3       0.000000017555
  4      -0.000000305554
  5       0.000000339855
  6       0.290618781144
  7      -0.012310531785
  8      -0.020056952098
  9       0.634023618895
 10      -0.026857364059
 11      -0.043757213635
 12      -1.230771593943
 13       0.052135953545
 14       0.084942074181
 15      -0.000000001525
 16       0.000000005415
 17      -0.000000001102
 18       0.000000002225
 19       0.000000003928
 20      -0.000000000190
 21       0.000000002094
 22      -0.000000000024
 23       0.000000000031
 24       0.000000002229
 25      -0.000140800109
 26       0.000811413876
 27      -0.000228040370
 28       0.000331701807
 29       0.001744591532
 30       0.001059370055
 31      -0.000286373680
 Sym=     1a
 Ene= 1.96976422455516E+00
 Spin= Alpha
 Occup= 0.000000
  1      -0.003724468577
  2      -0.011465621334
  3      -0.050927024688
  4       0.047735518023
  5      -0.024119101023
  6      -0.000000005059
  7      -0.000000032399
  8      -0.000000033733
  9      -0.000000004862
 10       0.000000036426
 11       0.000000025997
 12      -0.000000002204
 13      -0.000000012933
 14      -0.000000013685
 15       0.000062787961
 16       0.000024611092
 17       0.000221009214
 18      -0.000109257263
 19       0.000024639279
 20       0.244436295355
 21       0.095756531380
 22       0.860371191046
 23      -0.425342798489
 24       0.095866037796
 25      -0.000000001904
 26       0.000000002344
 27       0.000000012404
 28      -0.000000010764
 29       0.000000004581
 30       0.000000002593
 31       0.000000003616
 Sym=     1a
 Ene= 1.98493257439937E+00
 Spin= Alpha
 Occup= 0.000000
  1      -0.000000001037
  2      -0.000000002830
  3      -0.000000007128
  4       0.000000000828
  5      -0.000000004007
  6       0.000000000406
  7      -0.000000028724
  8       0.000000025897
  9      -0.000000002177
 10       0.000000016124
 11      -0.000000035686
 12       0.000000000232
 13      -0.000000009877
 14       0.000000009244
 15       0.000071403108
 16       0.000005998956
 17      -0.000000063061
 18       0.000041538649
 19      -0.000003192098
 20      -0.861497419485
 21      -0.072417364458
 22       0.000754758940
 23      -0.501173517052
 24       0.038551238574
 25      -0.000000012068
 26      -0.000000003685
 27      -0.000000008508
 28      -0.000000005533
 29      -0.000000000150
 30       0.000000002423
 31       0.000000004542
 Sym=     1a
 Ene= 1.98493257601650E+00
 Spin= Alpha
 Occup= 0.000000
  1      -0.000000049345
  2      -0.000000135795
  3      -0.000000353191
  4       0.000000063693
  5      -0.000000199035
  6       0.000000037478
  7      -0.000000002198
  8      -0.000000004172
  9      -0.000000038325
 10      -0.000000008539
 11      -0.000000007676
 12       0.000000013026
 13      -0.000000000617
 14      -0.000000001221
 15      -0.000007344851
 16       0.000057727277
 17      -0.000006510052
 18       0.000008737111
 19       0.000058015897
 20       0.088572523562
 21      -0.696473437331
 22       0.078266604029
 23      -0.105339581109
 24      -0.699958081827
 25       0.000000002573
 26      -0.000000007205
 27       0.000000002274
 28      -0.000000004008
 29      -0.000000012525
 30      -0.000000006180
 31       0.000000003818
 Sym=     1a
 Ene= 2.03278837845086E+00
 Spin= Alpha
 Occup= 0.000000
  1       0.000000000030
  2       0.000000000135
  3       0.000000000863
  4      -0.000000001285
  5       0.000000000760
  6       0.000000001715
  7       0.000000000402
  8      -0.000000000005
  9       0.000000013681
 10      -0.000000010121
 11       0.000000008998
 12       0.000000000917
 13      -0.000000000060
 14       0.000000000088
 15       0.000121900213
 16      -0.001279107156
 17       0.000001766411
 18       0.000073547304
 19       0.001277293367
 20      -0.067286914945
 21       0.706068906937
 22      -0.000975066651
 23      -0.040596958919
 24      -0.705067734235
 25      -0.000000002842
 26       0.000000011162
 27       0.000000000075
 28       0.000000001967
 29      -0.000000002097
 30      -0.000000006523
 31       0.000000003326
 Sym=     1a
 Ene= 2.03278837875937E+00
 Spin= Alpha
 Occup= 0.000000
  1      -0.000000000467
  2      -0.000000002950
  3      -0.000000025475
  4       0.000000045931
  5      -0.000000025241
  6       0.000000002780
  7       0.000000000581
  8      -0.000000000136
  9       0.000000015862
 10       0.000000008379
 11      -0.000000009577
 12       0.000000001400
 13       0.000000000323
 14      -0.000000000188
 15       0.000781439216
 16       0.000098037103
 17      -0.000912207211
 18      -0.001350906646
 19       0.000102646142
 20      -0.431355403876
 21      -0.054114357042
 22       0.503540102484
 23       0.745702172231
 24      -0.056658550988
 25      -0.000000009133
 26      -0.000000002991
 27       0.000000005087
 28       0.000000003933
 29       0.000000000720
 30      -0.000000003631
 31      -0.000000006866
 Sym=     1a
 Ene= 3.12332821669677E+00
 Spin= Alpha
 Occup= 0.000000
  1       0.000000032762
  2       0.000000118835
  3       0.000000752866
  4      -0.000000987997
  5       0.000000406044
  6       0.092039698384
  7       0.826967162807
  8       0.826022533111
  9      -0.125308603665
 10      -1.125884536662
 11      -1.124598458045
 12       0.056140051965
 13       0.504412184454
 14       0.503836002262
 15       0.000000006286
 16       0.000000003559
 17       0.000000016060
 18      -0.000000006709
 19       0.000000003369
 20       0.000000009680
 21       0.000000005753
 22       0.000000023437
 23      -0.000000009409
 24       0.000000005375
 25       0.000724299443
 26      -0.000282583689
 27      -0.002539231743
 28       0.002659490149
 29      -0.000599355547
 30      -0.000365932918
 31      -0.001059709919
 Sym=     1a
 Ene= 3.19969256574815E+00
 Spin= Alpha
 Occup= 0.000000
  1       0.000000006020
  2       0.000000022673
  3       0.000000147029
  4      -0.000000191667
  5       0.000000078907
  6       0.012389691418
  7      -0.831408181911
  8       0.830978447279
  9      -0.016771593146
 10       1.125454962236
 11      -1.124873242036
 12       0.007461872933
 13      -0.500727735786
 14       0.500468921903
 15       0.000000012591
 16       0.000000002655
 17      -0.000000001780
 18       0.000000005609
 19      -0.000000002381
 20       0.000000018886
 21       0.000000004400
 22      -0.000000003147
 23       0.000000007975
 24      -0.000000004008
 25      -0.001955122122
 26      -0.000309814733
 27      -0.001878159275
 28      -0.000859676946
 29      -0.000025359036
 30       0.000215863852
 31       0.001029002377
 Sym=     1a
 Ene= 3.19969260542285E+00
 Spin= Alpha
 Occup= 0.000000
  1       0.000000006423
  2       0.000000024290
  3       0.000000157612
  4      -0.000000205694
  5       0.000000084825
  6       1.171856955186
  7      -0.056504216462
  8      -0.074005546367
  9      -1.586311317251
 10       0.076488223347
 11       0.100179303912
 12       0.705767980317
 13      -0.034030464284
 14      -0.044570895901
 15      -0.000000002485
 16       0.000000011013
 17      -0.000000000632
 18       0.000000003650
 19       0.000000007998
 20      -0.000000004126
 21       0.000000016758
 22      -0.000000000791
 23       0.000000006017
 24       0.000000011422
 25       0.000174111030
 26      -0.001099064946
 27       0.000292678466
 28      -0.000455376577
 29      -0.002357771033
 30      -0.001429798854
 31       0.000395501859
 Sym=     1a
 Ene= 3.49148656669566E+00
 Spin= Alpha
 Occup= 0.000000
  1       0.129312988974
  2       0.465080779892
  3       2.860413008151
  4      -3.676542991225
  5       1.480014056852
  6      -0.000000089282
  7      -0.000000176532
  8      -0.000000259993
  9       0.000000120897
 10       0.000000231475
 11       0.000000345391
 12      -0.000000051995
 13      -0.000000102384
 14      -0.000000150898
 15       0.002857453761
 16       0.001119421416
 17       0.010057710816
 18      -0.004972246318
 19       0.001120701300
 20       0.002412713421
 21       0.000945101426
 22       0.008492320002
 23      -0.004198353843
 24       0.000946182716
 25      -0.000000000146
 26       0.000000000234
 27       0.000000001301
 28      -0.000000001079
 29       0.000000000512
 30       0.000000000266
 31       0.000000000396
 Sym=     1a
 Ene= 6.85933624957138E+00
 Spin= Alpha
 Occup= 0.000000
  1       0.000000000196
  2       0.000000000636
  3       0.000000003023
  4      -0.000000002839
  5       0.000000001154
  6      -0.000021739595
  7      -0.000196134854
  8      -0.000195911285
  9       0.000852021771
 10       0.007654116344
 11       0.007645372202
 12      -0.000347672114
 13      -0.003123679798
 14      -0.003120111593
 15      -0.000000008711
 16      -0.000000001027
 17      -0.000000043875
 18       0.000000024355
 19      -0.000000001522
 20       0.000000007360
 21       0.000000000803
 22       0.000000037437
 23      -0.000000020839
 24       0.000000001230
 25       0.182552319345
 26      -0.071233714341
 27      -0.639980485080
 28       0.670288682743
 29      -0.151086410735
 30      -0.092244319356
 31      -0.267083809443
 Sym=     1a
 Ene= 6.87034664167510E+00
 Spin= Alpha
 Occup= 0.000000
  1       0.000000000026
  2       0.000000000092
  3       0.000000000442
  4      -0.000000000441
  5       0.000000000211
  6      -0.000000368014
  7       0.000010255929
  8      -0.000010225749
  9       0.000218829779
 10      -0.006096157854
 11       0.006078736281
 12      -0.000088431890
 13       0.002463531161
 14      -0.002456492712
 15      -0.000000040774
 16      -0.000000002431
 17      -0.000000006667
 18      -0.000000021735
 19      -0.000000000312
 20       0.000000035213
 21       0.000000002018
 22       0.000000005746
 23       0.000000018875
 24       0.000000000314
 25      -0.640479231061
 26      -0.107004401530
 27      -0.614652449600
 28      -0.284224839145
 29      -0.019858414461
 30       0.063809154616
 31       0.339475973338
 Sym=     1a
 Ene= 6.87034668359705E+00
 Spin= Alpha
 Occup= 0.000000
  1       0.000000000033
  2       0.000000000105
  3       0.000000000408
  4      -0.000000000316
  5       0.000000000147
  6      -0.000014440126
  7       0.000000557531
  8       0.000001079064
  9       0.008582353282
 10      -0.000323249178
 11      -0.000633133852
 12      -0.003468239231
 13       0.000130584685
 14       0.000255812945
 15       0.000000001368
 16      -0.000000031629
 17      -0.000000001492
 18      -0.000000000320
 19      -0.000000034344
 20      -0.000000001176
 21       0.000000027318
 22       0.000000001165
 23       0.000000000247
 24       0.000000029766
 25       0.066680622215
 26      -0.359004953217
 27       0.105202642279
 28      -0.145171544593
 29      -0.773284403565
 30      -0.470066898786
 31       0.124699592653
 Sym=     1a
 Ene= 6.90228179591955E+00
 Spin= Alpha
 Occup= 0.000000
  1      -0.000000000004
  2      -0.000000000017
  3      -0.000000000128
  4       0.000000000096
  5      -0.000000000053
  6      -0.000000060643
  7      -0.000000001328
  8      -0.000000001373
  9      -0.000000041326
 10       0.000000004560
 11       0.000000004424
 12      -0.000000036166
 13       0.000000001390
 14       0.000000001361
 15       0.000000021109
 16      -0.000000002202
 17      -0.000000017522
 18      -0.000000024532
 19      -0.000000003105
 20      -0.000000018348
 21       0.000000001800
 22       0.000000015372
 23       0.000000021531
 24       0.000000002563
 25       0.678270955612
 26       0.095790864121
 27      -0.283180776735
 28      -0.165635421351
 29       0.038527564731
 30       0.116900148758
 31       0.638745769443
 Sym=     1a
 Ene= 6.90228181451695E+00
 Spin= Alpha
 Occup= 0.000000
  1      -0.000000000012
  2      -0.000000000024
  3      -0.000000000039
  4       0.000000000039
  5      -0.000000000048
  6       0.000000000055
  7       0.000000046944
  8      -0.000000046569
  9       0.000000000038
 10       0.000000019848
 11      -0.000000020324
 12       0.000000000028
 13       0.000000029439
 14      -0.000000029283
 15      -0.000000002869
 16      -0.000000029877
 17       0.000000000383
 18      -0.000000002731
 19       0.000000021465
 20       0.000000002372
 21       0.000000026044
 22      -0.000000000328
 23       0.000000002300
 24      -0.000000018905
 25       0.109973401752
 26      -0.780426469490
 27       0.042670780164
 28      -0.028482991172
 29      -0.000965541677
 30       0.605325864394
 31      -0.098934149743
 Sym=     1a
 Ene= 6.95452282145375E+00
 Spin= Alpha
 Occup= 0.000000
  1      -0.000000000005
  2      -0.000000000005
  3      -0.000000000055
  4       0.000000000143
  5      -0.000000000026
  6      -0.000000000096
  7      -0.000000002555
  8       0.000000002587
  9      -0.000000000100
 10       0.000000000632
 11      -0.000000000630
 12       0.000000000020
 13       0.000000000040
 14      -0.000000000034
 15      -0.000000003744
 16       0.000000005345
 17       0.000000003715
 18       0.000000005126
 19      -0.000000006170
 20       0.000000003206
 21      -0.000000004594
 22      -0.000000003192
 23      -0.000000004402
 24       0.000000005300
 25      -0.274923171899
 26      -0.075042915851
 27       0.344678172970
 28       0.648327508826
 29      -0.001044683357
 30       0.059636367981
 31       0.613267169317
 Sym=     1a
 Ene= 6.95452282794649E+00
 Spin= Alpha
 Occup= 0.000000
  1       0.000000000011
  2       0.000000000027
  3      -0.000000000034
  4       0.000000000225
  5      -0.000000000022
  6       0.000000002447
  7      -0.000000001845
  8      -0.000000001711
  9       0.000000001727
 10       0.000000002147
 11       0.000000002249
 12      -0.000000001105
 13      -0.000000000836
 14      -0.000000000865
 15      -0.000000003009
 16      -0.000000005635
 17       0.000000004166
 18       0.000000006345
 19       0.000000004690
 20       0.000000002573
 21       0.000000004844
 22      -0.000000003583
 23      -0.000000005458
 24      -0.000000004046
 25       0.065309383434
 26      -0.480324657380
 27      -0.026437051751
 28      -0.015626843113
 29       0.614243282598
 30      -0.618711732128
 31       0.063093377842
 Sym=     1a
 Ene= 8.20697883286632E+00
 Spin= Alpha
 Occup= 0.000000
  1      -0.002168893737
  2      -0.005634320900
  3      -0.030044645908
  4       0.027930777884
  5      -0.008730661251
  6      -0.000000001252
  7      -0.000000012517
  8      -0.000000012314
  9      -0.000000001477
 10       0.000000015056
 11       0.000000011289
 12      -0.000000000781
 13      -0.000000000624
 14      -0.000000001463
 15       0.283317774861
 16       0.111008776279
 17       0.997231876797
 18      -0.493000521471
 19       0.111135725302
 20      -0.143236175636
 21      -0.056122400292
 22      -0.504167736537
 23       0.249244895868
 24      -0.056186581603
 25       0.000000004631
 26      -0.000000005929
 27      -0.000000030807
 28       0.000000026635
 29      -0.000000011510
 30      -0.000000006516
 31      -0.000000008908
 Sym=     1a
 Ene= 8.23050991448766E+00
 Spin= Alpha
 Occup= 0.000000
  1       0.000000000964
  2       0.000000002468
  3       0.000000012035
  4      -0.000000009635
  5       0.000000003633
  6      -0.000000000279
  7       0.000000011002
  8      -0.000000010687
  9       0.000000000683
 10      -0.000000008225
 11       0.000000014558
 12       0.000000000079
 13       0.000000001356
 14       0.000000000040
 15       0.998521372650
 16       0.081322285181
 17      -0.000584385088
 18       0.580304733234
 19      -0.047266863867
 20      -0.504366833030
 21      -0.041077003769
 22       0.000295180815
 23      -0.293119875639
 24       0.023875143629
 25      -0.000000029070
 26      -0.000000008986
 27      -0.000000020172
 28      -0.000000013347
 29      -0.000000000237
 30       0.000000005965
 31       0.000000010783
 Sym=     1a
 Ene= 8.23051003107007E+00
 Spin= Alpha
 Occup= 0.000000
  1      -0.000000054218
  2      -0.000000138150
  3      -0.000000668859
  4       0.000000528539
  5      -0.000000204223
  6       0.000000015210
  7      -0.000000000721
  8      -0.000000001209
  9      -0.000000016448
 10      -0.000000002738
 11      -0.000000002243
 12       0.000000000821
 13      -0.000000000748
 14      -0.000000000803
 15       0.099435393564
 16      -0.807250149307
 17       0.090712275761
 18      -0.123927098171
 19      -0.810875750876
 20      -0.050226180977
 21       0.407753113142
 22      -0.045820008871
 23       0.062597277343
 24       0.409584454331
 25      -0.000000006254
 26       0.000000017390
 27      -0.000000005426
 28       0.000000009852
 29       0.000000029851
 30       0.000000014543
 31      -0.000000009427
 Sym=     1a
 Ene= 8.30474866293254E+00
 Spin= Alpha
 Occup= 0.000000
  1       0.000000000041
  2       0.000000000154
  3       0.000000000721
  4      -0.000000000619
  5       0.000000000227
  6      -0.000000000009
  7      -0.000000000128
  8       0.000000000075
  9      -0.000000004300
 10       0.000000003726
 11      -0.000000003193
 12      -0.000000001068
 13       0.000000000851
 14      -0.000000000808
 15       0.070057515860
 16      -0.818273461582
 17       0.010267436061
 18       0.060525712078
 19       0.815104134774
 20      -0.035296720243
 21       0.412266575567
 22      -0.005172990362
 23      -0.030494361178
 24      -0.410669789829
 25      -0.000000006383
 26       0.000000026030
 27       0.000000000050
 28       0.000000004593
 29      -0.000000005145
 30      -0.000000014867
 31       0.000000008185
 Sym=     1a
 Ene= 8.30474866626724E+00
 Spin= Alpha
 Occup= 0.000000
  1      -0.000000001076
  2      -0.000000004091
  3      -0.000000019108
  4       0.000000016533
  5      -0.000000005954
  6      -0.000000000068
  7       0.000000000017
  8      -0.000000000061
  9      -0.000000004930
 10      -0.000000002730
 11       0.000000003276
 12      -0.000000001270
 13      -0.000000000701
 14       0.000000000822
 15       0.500525178278
 16       0.049824568716
 17      -0.582841770407
 18      -0.862430926646
 19       0.078380302023
 20      -0.252177066394
 21      -0.025102857262
 22       0.293650219216
 23       0.434514207434
 24      -0.039489947808
 25      -0.000000021261
 26      -0.000000006758
 27       0.000000011958
 28       0.000000009385
 29       0.000000001668
 30      -0.000000008892
 31      -0.000000015601
 Sym=     1a
 Ene= 5.76029338847822E+01
 Spin= Alpha
 Occup= 0.000000
  1      -1.388147095927
  2       1.662855566956
  3       1.319450150928
  4      -1.080810724501
  5       0.374450749324
  6       0.000000000072
  7       0.000000000131
  8       0.000000000209
  9      -0.000000000091
 10      -0.000000000242
 11      -0.000000000357
 12       0.000000000028
 13       0.000000000144
 14       0.000000000202
 15      -0.000074237914
 16      -0.000029082169
 17      -0.000261304102
 18       0.000129181147
 19      -0.000029115426
 20       0.000032511359
 21       0.000012735859
 22       0.000114434258
 23      -0.000056572902
 24       0.000012750427
 25      -0.000000000001
 26       0.000000000002
 27       0.000000000007
 28      -0.000000000006
 29       0.000000000003
 30       0.000000000002
 31       0.000000000000
 Sym=     1a
 Ene= -2.49733683971646E+01
 Spin=Beta
 Occup= 1.000000
  1       0.422387933893
  2       0.653408317457
  3      -0.026330104072
  4       0.009897087087
  5      -0.002838392857
  6       0.000000002258
  7       0.000000001139
  8       0.000000003656
  9      -0.000000002296
 10       0.000000000291
 11      -0.000000002452
 12       0.000000000226
 13       0.000000000344
 14       0.000000000540
 15       0.000160928755
 16       0.000063152385
 17       0.000566440977
 18      -0.000280033155
 19       0.000063224269
 20      -0.000023033121
 21      -0.000009059030
 22      -0.000081072959
 23       0.000040080369
 24      -0.000009069303
 25       0.000000000000
 26       0.000000000024
 27       0.000000000110
 28      -0.000000000085
 29       0.000000000055
 30       0.000000000027
 31       0.000000000032
 Sym=     1a
 Ene= -1.27103422089232E+00
 Spin=Beta
 Occup= 1.000000
  1      -0.105935728673
  2      -0.264891286670
  3      -0.380552545656
  4      -0.515479307126
  5      -0.245762392186
  6       0.000000002267
  7       0.000000130156
  8       0.000000115439
  9       0.000000005358
 10       0.000000106852
 11       0.000000098874
 12      -0.000000016709
 13       0.000000036120
 14       0.000000011568
 15       0.001152021904
 16       0.000452006080
 17       0.004054919783
 18      -0.002004639683
 19       0.000452520223
 20       0.001277117206
 21       0.000500098897
 22       0.004495182140
 23      -0.002222304090
 24       0.000500670610
 25      -0.000000000660
 26       0.000000000610
 27       0.000000003588
 28      -0.000000003151
 29       0.000000001293
 30       0.000000000627
 31       0.000000001089
 Sym=     1a
 Ene= -5.56131400490490E-01
 Spin=Beta
 Occup= 1.000000
  1      -0.000000003601
  2      -0.000000009279
  3      -0.000000016789
  4      -0.000000019513
  5       0.000000004827
  6       0.513687637813
  7      -0.023513213909
  8      -0.033700551896
  9       0.412117733565
 10      -0.018861667030
 11      -0.027034691593
 12       0.283332831495
 13      -0.012966426317
 14      -0.018585416491
 15       0.000000004860
 16      -0.000000011684
 17       0.000000000474
 18      -0.000000007277
 19      -0.000000003903
 20       0.000000009523
 21      -0.000000021515
 22       0.000000001448
 23      -0.000000015097
 24      -0.000000006638
 25       0.000013780366
 26      -0.000083352274
 27       0.000022362375
 28      -0.000033944595
 29      -0.000178962219
 30      -0.000108593750
 31       0.000029550680
 Sym=     1a
 Ene= -5.56130559032694E-01
 Spin=Beta
 Occup= 1.000000
  1      -0.000000003314