[Molden Format]
[Title]
 Molden file created by orca_2mkl for BaseName=h

[Atoms] AU
H    1   1          0.0000000000         0.0000000000         0.0000000000 
[GTO]
  1 0
s   3 1.0 
       34.0613410000         0.2556299169
        5.1235746000         0.4613599649
        1.1646626000         0.6811214941
s   1 1.0 
        0.3272304100         0.3083545312
s   1 1.0 
        0.1030724100         0.1296483265
p   1 1.0 
        1.4070000000         2.1842769845
p   1 1.0 
        0.3880000000         0.4364954740
d   1 1.0 
        1.0570000000         3.1412413909

[5D]
[7F]
[9G]
[MO]
 Sym=     1a
 Ene= -4.14144999965073E-01
 Spin= Alpha
 Occup= 1.000000
  1      -0.263287996072
  2      -0.418232644049
  3      -0.457045960009
  4      -0.000017820783
  5      -0.000018718412
  6      -0.000013651792
  7       0.000073126348
  8       0.000076800850
  9       0.000056010542
 10       0.000002218815
 11       0.000000129145
 12       0.000004975647
 13      -0.000002819269
 14      -0.000000667928
 Sym=     1a
 Ene= 3.09758838062204E-01
 Spin= Alpha
 Occup= 0.000000
  1      -0.146229199331
  2      -1.283202230132
  3       1.518856727129
  4       0.000092187731
  5       0.000030252855
  6       0.000006530692
  7      -0.000555328543
  8      -0.000171995802
  9      -0.000029479907
 10      -0.000003514576
 11      -0.000000366240
 12      -0.000003031276
 13       0.000002607661
 14       0.000002102716
 Sym=     1a
 Ene= 6.58688516342973E-01
 Spin= Alpha
 Occup= 0.000000
  1      -0.000138500821
  2      -0.000493264295
  3       0.000722640137
  4      -0.072211719825
  5      -0.028837370685
  6       0.026676033329
  7       0.920986603975
  8       0.367790022414
  9      -0.340226820354
 10       0.000002899531
 11      -0.000000843838
 12      -0.000000582944
 13      -0.000001237714
 14      -0.000004035312
 Sym=     1a
 Ene= 6.58711025771873E-01
 Spin= Alpha
 Occup= 0.000000
  1       0.000048909458
  2       0.000158204094
  3      -0.000233679975
  4       0.039263192655
  5      -0.051335599795
  6       0.050790090960
  7      -0.500802968488
  8       0.654786603547
  9      -0.647829361644
 10       0.000001771107
 11       0.000002820591
 12       0.000000256993
 13       0.000003355115
 14      -0.000000423865
 Sym=     1a
 Ene= 6.59045655433865E-01
 Spin= Alpha
 Occup= 0.000000
  1      -0.000076689911
  2       0.000211726819
  3      -0.000257669314
  4      -0.001156763725
  5       0.057288526618
  6       0.058797925903
  7       0.014772656742
  8      -0.731547580171
  9      -0.750823755301
 10       0.000013753312
 11       0.000002009260
 12       0.000049424152
 13      -0.000025003124
 14       0.000002105216
 Sym=     1a
 Ene= 2.06496901279207E+00
 Spin= Alpha
 Occup= 0.000000
  1      -1.528499079948
  2       1.924543831210
  3      -0.838009797907
  4      -0.000025954594
  5       0.000043527160
  6       0.000048099599
  7      -0.000043868772
  8       0.000002128437
  9       0.000012689692
 10      -0.000000800576
 11       0.000000353051
 12      -0.000014196542
 13       0.000005772737
 14      -0.000002406975
 Sym=     1a
 Ene= 3.09694273251407E+00
 Spin= Alpha
 Occup= 0.000000
  1      -0.000002902376
  2       0.000005874174
  3      -0.000004692652
  4      -0.000016265467
  5      -0.000049689141
  6       0.000044649484
  7       0.000010255408
  8       0.000030258058
  9      -0.000027317510
 10      -0.001419752917
 11      -0.669202747855
 12      -0.004109410985
 13      -0.000685157622
 14       0.743066825338
 Sym=     1a
 Ene= 3.09694547727541E+00
 Spin= Alpha
 Occup= 0.000000
  1      -0.000002078891
  2       0.000004020124
  3      -0.000003045223
  4      -0.000086075943
  5      -0.000044258246
  6      -0.000050106479
  7       0.000052283512
  8       0.000027145470
  9       0.000030494055
 10      -0.002703919135
 11       0.743052364101
 12       0.004687837698
 13       0.000648376566
 14       0.669211079869
 Sym=     1a
 Ene= 3.09697140973354E+00
 Spin= Alpha
 Occup= 0.000000
  1       0.000016916768
  2      -0.000021710613
  3       0.000005786727
  4       0.000026001236
  5      -0.000109028981
  6      -0.000087008372
  7      -0.000015796112
  8       0.000035779963
  9       0.000022495133
 10       0.168077217833
 11       0.006320152811
 12      -0.941064969463
 13      -0.293439131073
 14       0.000538062362
 Sym=     1a
 Ene= 3.09702010537323E+00
 Spin= Alpha
 Occup= 0.000000
  1      -0.000003381842
  2       0.000006388759
  3      -0.000004693386
  4       0.000001608714
  5      -0.000069669695
  6       0.000053522224
  7      -0.000000826476
  8       0.000042677367
  9      -0.000032025691
 10      -0.861690330327
 11      -0.000462374708
 12       0.004313301766
 13      -0.507409762657
 14      -0.002506832345
 Sym=     1a
 Ene= 3.09703627445627E+00
 Spin= Alpha
 Occup= 0.000000
  1       0.000014445524
  2      -0.000014890285
  3      -0.000001355862
  4      -0.000072172947
  5      -0.000113330034
  6      -0.000117413552
  7       0.000044084188
  8       0.000033086976
  9       0.000035328326
 10      -0.478780210149
 11       0.000838893230
 12      -0.338140844054
 13       0.810202387912
 14      -0.001282259200
 Sym=     1a
 Ene= 3.42940974771394E+00
 Spin= Alpha
 Occup= 0.000000
  1      -0.000030101036
  2       0.000087788761
  3      -0.000082187341
  4       1.112663283318
  5       0.444915462653
  6      -0.406606170951
  7      -0.627202460303
  8      -0.250796596613
  9       0.229201686548
 10      -0.000053924854
 11       0.000019646681
 12      -0.000008019260
 13       0.000028669404
 14       0.000066407538
 Sym=     1a
 Ene= 3.42942028201305E+00
 Spin= Alpha
 Occup= 0.000000
  1       0.000012811014
  2      -0.000032471106
  3       0.000028130868
  4      -0.602375468472
  5       0.791750308851
  6      -0.782032188308
  7       0.339558569433
  8      -0.446309033415
  9       0.440830904352
 10      -0.000035389043
 11      -0.000052656844
 12      -0.000010376575
 13      -0.000060156092
 14       0.000006378196
 Sym=     1a
 Ene= 3.42955567278138E+00
 Spin= Alpha
 Occup= 0.000000
  1       0.000081922894
  2      -0.000095738284
  3       0.000022548335
  4      -0.020552618254
  5       0.881185802443
  6       0.907967122671
  7       0.011586664539
  8      -0.496777719679
  9      -0.511875862409
 10      -0.000050795997
 11       0.000037836898
 12      -0.000149425673
 13       0.000069125216
 14       0.000035661916
 Sym=     1a
 Ene= -7.35536841529483E+04
 Spin=Beta
 Occup= 0.000000
  1       0.202420605168
  2      -1.422562191819
  3       1.707298751807
  4      -0.000008765008
  5      -0.000009305512
  6      -0.000006748283
  7      -0.000017168192
  8      -0.000017717424
  9      -0.000013079182
 10       0.000000022710
 11       0.000000058379
 12       0.000000125210
 13      -0.000000138706
 14       0.000000030263
 Sym=     1a
 Ene= -5.07507163168880E+04
 Spin=Beta
 Occup= 0.000000
  1       0.000047491317
  2       0.000145671405
  3      -0.000042884645
  4       0.063456437927
  5       0.258260273578
  6       0.315666295365
  7      -0.184389143216
  8      -0.750428261919
  9      -0.917234592542
 10      -0.000006691450
 11      -0.000028991284
 12      -0.000042447980
 13       0.000016663946
 14      -0.000025836033
 Sym=     1a
 Ene= -5.07505527608333E+04
 Spin=Beta
 Occup= 0.000000
  1       0.000000939354
  2       0.000001619549
  3      -0.000000218453
  4      -0.147213623597
  5       0.312425000562
  6      -0.226012987222
  7       0.427768172031
  8      -0.907831881735
  9       0.656741764240
 10       0.000024271948
 11       0.000026966100
 12      -0.000000136454
 13       0.000037918854
 14      -0.000012335478
 Sym=     1a
 Ene= -5.07505280788361E+04
 Spin=Beta
 Occup= 0.000000
  1      -0.000029095231
  2      -0.000089809259
  3       0.000026586959
  4      -0.380346593173
  5      -0.077836482868
  6       0.140142885365
  7       1.105200479301
  8       0.226176743649
  9      -0.407221101926
 10      -0.000031040432
 11       0.000012105621
 12      -0.000007016908
 13       0.000023779708
 14       0.000038267400
 Sym=     1a
 Ene= -2.40392194770852E+04
 Spin=Beta
 Occup= 0.000000
  1       0.229429117871
  2      -1.298701882531
  3       0.188572027648
  4       0.000008740702
  5       0.000009280337
  6       0.000006695412
  7      -0.000109722100
  8      -0.000115454334
  9      -0.000084083157
 10       0.000000329042
 11       0.000000100069
 12       0.000000860390
 13      -0.000000648209
 14      -0.000000032567
 Sym=     1a
 Ene= 4.67191207331527E+04
 Spin=Beta
 Occup= 0.000000
  1       0.000009658258
  2      -0.000009876879
  3       0.000003644094
  4       0.000129363883
  5      -0.000202746204
  6      -0.000306498691
  7      -0.000062088061
  8       0.000097615857
  9       0.000147379628
 10      -0.379909699271
 11       0.045905572791
 12      -0.871686277335
 13       0.302711343778
 14      -0.045717369645
 Sym=     1a
 Ene= 4.67196214017651E+04
 Spin=Beta
 Occup= 0.000000
  1       0.000000389850
  2      -0.000000577462
  3       0.000000213853
  4       0.000158438250
  5      -0.000188824647
  6       0.000212493523
  7      -0.000076319885
  8       0.000090872228
  9      -0.000101699570
 10       0.739037182974
 11       0.346245990816
 12      -0.160651701158
 13       0.459437266655
 14       0.311522257897
 Sym=     1a
 Ene= 4.67199041708613E+04
 Spin=Beta
 Occup= 0.000000
  1       0.000000810092
  2      -0.000000446308
  3       0.000000116623
  4       0.000281908707
  5       0.000288219301
  6       0.000107149252
  7      -0.000135695601
  8      -0.000138381325
  9      -0.000051585322
 10      -0.391610217462
 11       0.670516707142
 12       0.094485058950
 13      -0.233876685926
 14       0.577427866565
 Sym=     1a
 Ene= 4.67219033688117E+04
 Spin=Beta
 Occup= 0.000000
  1      -0.000001212728
  2       0.000001110120
  3      -0.000000411119
  4       0.000027746589
  5      -0.000194823795
  6       0.000184869613
  7      -0.000013127554
  8       0.000093253305
  9      -0.000088731983
 10      -0.127880682929
 11       0.596839932702
 12       0.229934070701
 13       0.306406915203
 14      -0.693306356839
 Sym=     1a
 Ene= 4.67219976537048E+04
 Spin=Beta
 Occup= 0.000000
  1       0.000002032388
  2      -0.000002216096
  3       0.000000838799
  4       0.000268312929
  5       0.000010034466
  6      -0.000048598254
  7      -0.000129078288
  8      -0.000004886801
  9       0.000023142424
 10      -0.373872397274
 11      -0.268692699401
 12       0.390585319922
 13       0.740742635132
 14       0.294562510454
 Sym=     1a
 Ene= 1.35663330109369E+05
 Spin=Beta
 Occup= 0.000000
  1       0.000869346478
  2      -0.000831366961
  3       0.000329625382
  4       0.105868464147
  5       0.833605843819
  6       0.855323191473
  7      -0.036361918347
  8      -0.286308862281
  9      -0.293767333946
 10      -0.000032544074
 11      -0.000156797114
 12      -0.000256172839
 13       0.000129059881
 14      -0.000158253348
 Sym=     1a
 Ene= 1.35664521280198E+05
 Spin=Beta
 Occup= 0.000000
  1      -0.000242277346
  2       0.000231441210
  3      -0.000091725600
  4      -0.219290911281
  5      -0.830514810095
  6       0.836569964829
  7       0.075319203273
  8       0.285252858602
  9      -0.287331993854
 10      -0.000230025878
 11      -0.000112539124
 12      -0.000041198499
 13      -0.000110141474
 14       0.000178070009
 Sym=     1a
 Ene= 1.35664643566782E+05
 Spin=Beta
 Occup= 0.000000
  1      -0.000522318782
  2       0.000499887740
  3      -0.000198252410
  4      -1.174051320086
  5       0.230294120238
  6      -0.079127583623
  7       0.403246015735
  8      -0.079097397218
  9       0.027177593904
 10      -0.000077945528
 11       0.000163496447
 12      -0.000015754319
 13       0.000236379326
 14       0.000166808488
 Sym=     1a
 Ene= 1.94348739279058E+05
 Spin=Beta
 Occup= 0.000000
  1      -1.527547088887
  2       1.347250906398
  3      -0.517348280544
  4       0.000505758204
  5       0.000537258438
  6       0.000388262143
  7      -0.000215798884
  8      -0.000229023599
  9      -0.000165624767
 10      -0.000002719598
 11      -0.000000202763
 12      -0.000005154438
 13       0.000002543921
 14       0.000000861236
