[Molden Format]
[Title]
 Molden file created by orca_2mkl for BaseName=i

[Atoms] AU
I    1  53          0.0000000000         0.0000000000         0.0000000000 
[GTO]
  1 0
s   9 1.0 
 10973513.2359999996        89.3712685122
  1352923.2074000000        61.2845857692
   254340.6058800000        50.6044721024
    60509.0014110000        48.2091659922
    16930.4550840000        51.1643038151
     5351.7288256000        56.3756395124
     1857.9141787000        56.0941180341
      698.7492643800        40.9894341623
      267.9598595200        12.8749141284
s   4 1.0 
     1897.3439590000        -4.1082900734
      538.6196348500        -7.6758655600
       90.1878889710         9.9105754826
       42.1275989930         7.0393568787
s   2 1.0 
       61.7092838220       -14.9093075101
       12.4143700540         6.1330461218
s   1 1.0 
        8.9314197627         3.6821414501
s   1 1.0 
        3.4783556259         1.8152672765
s   1 1.0 
        1.5346521902         0.9826923266
s   1 1.0 
        0.3102969970         0.2963079280
s   1 1.0 
        0.1294585630         0.1538183607
p   9 1.0 
   155141.8036400000       926.4036392962
    24696.7250590000       489.8625298599
     6159.0061610000       396.8025099904
     1969.5375793000       395.7602228499
      733.9174233900       404.8231545695
      302.6298803300       365.5985014147
      134.0808667100       243.1998894066
       62.0034346570        94.1335962621
       27.6459309350        11.8892537007
p   5 1.0 
      334.2367573800        12.6382971460
      127.8925500400        15.3341806329
       27.9580998360       -22.3014337753
       13.5640058660       -20.3686862760
        6.4247139004        -4.2220106919
p   3 1.0 
        9.8627015980         1.1439035014
        4.2230007790        -3.4390930758
        2.0438399474        -2.3256700836
p   1 1.0 
        0.9587796161         1.3523483585
p   1 1.0 
        0.3584131862         0.3952938539
p   1 1.0 
        0.1144101656         0.0948464009
d   6 1.0 
      810.3765643500      1409.3376713141
      235.4363944700      1272.8168884997
       87.8364073510       971.2072936097
       36.8013975470       527.5982714982
       16.0553194090       170.5717574364
        6.9727502391        21.2436172175
d   3 1.0 
        9.7354217429        13.9142301211
        4.1288659230        14.6296477684
        1.7247136535         4.3767807229
d   1 1.0 
        0.6652201043         1.3968812053
d   1 1.0 
        0.1700000000         0.1283085792
f   1 1.0 
        2.1800000000        32.9251066076
f   1 1.0 
        0.4414180800         0.9055508518

[5D]
[7F]
[9G]
[MO]
 Sym=     1a
 Ene= -1.17933104704900E+03
 Spin= Alpha
 Occup= 1.000000
  1      -0.888149063991
  2       0.628694069691
  3       0.857463396292
  4      -1.416165866316
  5       0.587993413421
  6      -0.254678631326
  7       0.071815392004
  8      -0.032325357572
  9       0.000000000783
 10      -0.000000001109
 11       0.000000001983
 12       0.000000000328
 13      -0.000000000436
 14       0.000000000801
 15      -0.000000000479
 16       0.000000000525
 17      -0.000000001038
 18      -0.000000000627
 19       0.000000000646
 20      -0.000000001301
 21       0.000000000382
 22      -0.000000000334
 23       0.000000000724
 24      -0.000000000122
 25       0.000000000057
 26      -0.000000000173
 27      -0.000000029674
 28      -0.000000050064
 29       0.000000023735
 30      -0.000000013379
 31       0.000000016366
 32      -0.000000022370
 33      -0.000000037757
 34       0.000000017809
 35      -0.000000010170
 36       0.000000012298
 37       0.000000011625
 38       0.000000019629
 39      -0.000000009196
 40       0.000000005344
 41      -0.000000006358
 42       0.000000033738
 43       0.000000056908
 44      -0.000000027002
 45       0.000000015190
 46      -0.000000018627
 47       0.000000000007
 48      -0.000000000006
 49      -0.000000000052
 50      -0.000000000030
 51      -0.000000000012
 52       0.000000000027
 53      -0.000000000026
 54       0.000000000010
 55       0.000000000006
 56       0.000000000046
 57       0.000000000040
 58       0.000000000008
 59      -0.000000000011
 60       0.000000000023
 Sym=     1a
 Ene= -1.86350210072708E+02
 Spin= Alpha
 Occup= 1.000000
  1      -0.000000781991
  2       0.000005365655
  3       0.000003248559
  4      -0.000005145159
  5       0.000002154430
  6      -0.000000952194
  7       0.000000272623
  8      -0.000000122126
  9      -0.559863477706
 10       0.265051708440
 11      -0.811230714428
 12      -0.029883302735
 13       0.014147413337
 14      -0.043300293316
 15       0.018834349744
 16      -0.008916595106
 17       0.027290586518
 18       0.013722508665
 19      -0.006496536586
 20       0.019883633328
 21      -0.006297933888
 22       0.002981579931
 23      -0.009125576846
 24       0.001836683134
 25      -0.000869526097
 26       0.002661316156
 27       0.000000016561
 28       0.000000020421
 29      -0.000000016351
 30       0.000000001868
 31      -0.000000009572
 32       0.000000001052
 33       0.000000000654
 34      -0.000000001238
 35      -0.000000000335
 36      -0.000000000601
 37      -0.000000007337
 38      -0.000000008107
 39       0.000000007539
 40      -0.000000000164
 41       0.000000004230
 42       0.000000001318
 43       0.000000001398
 44      -0.000000001416
 45      -0.000000000033
 46      -0.000000000766
 47      -0.000000010009
 48      -0.000000115551
 49       0.000000054894
 50      -0.000000057039
 51       0.000000070084
 52       0.000000006656
 53      -0.000000027345
 54      -0.000000001566
 55      -0.000000018062
 56       0.000000008520
 57      -0.000000008989
 58       0.000000010888
 59       0.000000001089
 60      -0.000000004267
 Sym=     1a
 Ene= -1.86349197330853E+02
 Spin= Alpha
 Occup= 1.000000
  1       0.000000170702
  2      -0.000001168484
  3      -0.000000706312
  4       0.000001120171
  5      -0.000000471308
  6       0.000000208977
  7      -0.000000059824
  8       0.000000026807
  9      -0.845157264845
 10      -0.037386874733
 11       0.571062241689
 12      -0.045117225664
 13      -0.001995832123
 14       0.030485147375
 15       0.028433696192
 16       0.001257809677
 17      -0.019212294083
 18       0.020715865512
 19       0.000916399160
 20      -0.013997451864
 21      -0.009507718102
 22      -0.000420588980
 23       0.006424246452
 24       0.002773002743
 25       0.000122668171
 26      -0.001873683356
 27      -0.000000019368
 28       0.000000014090
 29       0.000000008075
 30       0.000000008318
 31      -0.000000010368
 32      -0.000000000794
 33       0.000000001120
 34       0.000000000679
 35      -0.000000000010
 36      -0.000000000945
 37       0.000000007967
 38      -0.000000006586
 39      -0.000000003837
 40      -0.000000002904
 41       0.000000005024
 42      -0.000000001376
 43       0.000000001189
 44       0.000000000720
 45       0.000000000468
 46      -0.000000000917
 47       0.000000088648
 48       0.000000019465
 49      -0.000000037143
 50      -0.000000057581
 51       0.000000014347
 52       0.000000023479
 53      -0.000000026510
 54       0.000000013301
 55       0.000000002960
 56      -0.000000005510
 57      -0.000000008597
 58       0.000000002119
 59       0.000000003585
 60      -0.000000003929
 Sym=     1a
 Ene= -1.86349197293844E+02
 Spin= Alpha
 Occup= 1.000000
  1      -0.000000174231
  2       0.000001192630
  3       0.000000720906
  4      -0.000001143300
  5       0.000000481004
  6      -0.000000213266
  7       0.000000061062
  8      -0.000000027368
  9       0.118579013665
 10       0.984961969778
 11       0.239978332700
 12       0.006330131219
 13       0.052580452103
 14       0.012810819225
 15      -0.003989364086
 16      -0.033137156454
 17      -0.008073611551
 18      -0.002906521060
 19      -0.024142652905
 20      -0.005882170845
 21       0.001333971965
 22       0.011080470470
 23       0.002699671094
 24      -0.000389063675
 25      -0.003231708732
 26      -0.000787380853
 27      -0.000000012928
 28      -0.000000004930
 29      -0.000000019572
 30      -0.000000013554
 31      -0.000000007608
 32      -0.000000001002
 33      -0.000000000167
 34      -0.000000000954
 35      -0.000000001101
 36       0.000000000169
 37       0.000000006006
 38       0.000000001969
 39       0.000000008276
 40       0.000000006376
 41       0.000000002422
 42      -0.000000001075
 43      -0.000000000317
 44      -0.000000001477
 45      -0.000000001175
 46      -0.000000000362
 47       0.000000037391
 48       0.000000038256
 49       0.000000047809
 50       0.000000052686
 51       0.000000068788
 52      -0.000000035163
 53      -0.000000022079
 54       0.000000005552
 55       0.000000005724
 56       0.000000007197
 57       0.000000007853
 58       0.000000010352
 59      -0.000000005229
 60      -0.000000003407
 Sym=     1a
 Ene= -1.83354142870742E+02
 Spin= Alpha
 Occup= 1.000000
  1      -0.286662154396
  2       1.980339836116
  3       1.201270069749
  4      -1.901151009768
  5       0.786407023293
  6      -0.344196344538
  7       0.098412312645
  8      -0.044434923849
  9       0.000000953660
 10      -0.000001343853
 11       0.000002408639
 12       0.000000062278
 13      -0.000000086173
 14       0.000000155469
 15      -0.000000034398
 16       0.000000043928
 17      -0.000000081604
 18      -0.000000023097
 19       0.000000026525
 20      -0.000000051311
 21       0.000000011220
 22      -0.000000012233
 23       0.000000024157
 24      -0.000000004191
 25       0.000000004719
 26      -0.000000009201
 27       0.000004221867
 28       0.000007122871
 29      -0.000003372940
 30       0.000001906669
 31      -0.000002327756
 32      -0.000001569923
 33      -0.000002648649
 34       0.000001254901
 35      -0.000000708321
 36       0.000000866029
 37       0.000000765159
 38       0.000001290882
 39      -0.000000612209
 40       0.000000344591
 41      -0.000000422503
 42       0.000000113474
 43       0.000000191354
 44      -0.000000090728
 45       0.000000051202
 46      -0.000000062552
 47       0.000000000050
 48      -0.000000000041
 49      -0.000000000482
 50      -0.000000000271
 51      -0.000000000107
 52       0.000000000224
 53      -0.000000000225
 54       0.000000000103
 55      -0.000000000014
 56       0.000000000481
 57       0.000000000373
 58       0.000000000114
 59      -0.000000000081
 60       0.000000000197
 Sym=     1a
 Ene= -3.66456120445957E+01
 Spin= Alpha
 Occup= 1.000000
  1       0.098681461980
  2      -1.220690926771
  3      -0.522860578535
  4       1.979419657117
  5      -0.243199806336
  6       0.181364462838
  7      -0.055878457094
  8       0.025565054120
  9       0.000000989674
 10      -0.000001408273
 11       0.000002516120
 12       0.000002425359
 13      -0.000003460920
 14       0.000006177345
 15       0.000000017378
 16       0.000000047324
 17      -0.000000038883
 18      -0.000000114494
 19       0.000000248499
 20      -0.000000389949
 21       0.000000054506
 22      -0.000000119881
 23       0.000000187481
 24       0.000000003006
 25       0.000000003250
 26      -0.000000001001
 27       0.000192162426
 28       0.000324206924
 29      -0.000153508952
 30       0.000086799275
 31      -0.000105939968
 32       0.000057821019
 33       0.000097544729
 34      -0.000046235152
 35       0.000026071027
 36      -0.000031903553
 37      -0.000023542091
 38      -0.000039709881
 39       0.000018860156
 40      -0.000010578344
 41       0.000013010824
 42       0.000005496725
 43       0.000009273116
 44      -0.000004401048
 45       0.000002472584
 46      -0.000003036886
 47       0.000000000698
 48      -0.000000000596
 49       0.000000001892
 50       0.000000001476
 51       0.000000001264
 52      -0.000000000134
 53       0.000000000566
 54      -0.000000001224
 55       0.000000001345
 56      -0.000000002845
 57      -0.000000002174
 58      -0.000000002141
 59      -0.000000000176
 60      -0.000000000552
 Sym=     1a
 Ene= -3.29271461190670E+01
 Spin= Alpha
 Occup= 1.000000
  1       0.000000619161
  2      -0.000007920822
  3      -0.000003459912
  4       0.000012692685
  5      -0.000000846627
  6       0.000000475004
  7      -0.000000254545
  8       0.000000189907
  9      -0.245717482817
 10       0.116355716359
 11      -0.356055404414
 12      -0.604455975149
 13       0.286230771969
 14      -0.875883198746
 15      -0.007110177584
 16       0.003367017112
 17      -0.010303017751
 18       0.002033240769
 19      -0.000962683467
 20       0.002946183052
 21      -0.001333106455
 22       0.000631215875
 23      -0.001931698048
 24       0.000418465949
 25      -0.000198153963
 26       0.000606373412
 27      -0.000000975864
 28      -0.000001182474
 29       0.000000969281
 30      -0.000000095773
 31       0.000000563767
 32      -0.000000024729
 33      -0.000000041995
 34       0.000000021859
 35      -0.000000010185
 36       0.000000014343
 37      -0.000000113190
 38      -0.000000122905
 39       0.000000115648
 40      -0.000000001936
 41       0.000000065042
 42       0.000000021272
 43       0.000000022522
 44      -0.000000022953
 45      -0.000000000570
 46      -0.000000012459
 47       0.000003789823
 48       0.000043697938
 49      -0.000020723843
 50       0.000021606738
 51      -0.000026469808
 52      -0.000002540611
 53       0.000010338492
 54      -0.000000745779
 55      -0.000008599818
 56       0.000004078793
 57      -0.000004251550
 58       0.000005209697
 59       0.000000500590
 60      -0.000002034623
 Sym=     1a
 Ene= -3.29174125197739E+01
 Spin= Alpha
 Occup= 1.000000
  1      -0.000000104996
  2       0.000001360581
  3       0.000000600932
  4      -0.000002159598
  5       0.000000089410
  6      -0.000000046278
  7       0.000000035663
  8      -0.000000030221
  9      -0.354194990183
 10       0.066483504373
 11       0.266159800952
 12      -0.871347666060
 13       0.163554673378
 14       0.654774140000
 15      -0.010064599120
 16       0.001889166457
 17       0.007563070333
 18       0.003032458820
 19      -0.000569189657
 20      -0.002278706653
 21      -0.001965933564
 22       0.000369006201
 23       0.001477285382
 24       0.000616944769
 25      -0.000115801943
 26      -0.000463602095
 27       0.000001257345
 28      -0.000000770045
 29      -0.000000253673
 30      -0.000000312111
 31       0.000000692647
 32       0.000000039010
 33      -0.000000015328
 34      -0.000000002144
 35      -0.000000019091
 36       0.000000014240
 37       0.000000137490
 38      -0.000000093630
 39      -0.000000034535
 40      -0.000000023125
 41       0.000000083526
 42      -0.000000024128
 43       0.000000017208
 44       0.000000006966
 45       0.000000003176
 46      -0.000000015259
 47      -0.000038594071
 48      -0.000010839932
 49       0.000011169699
 50       0.000019028573
 51      -0.000011148633
 52      -0.000006725423
 53       0.000012383346
 54       0.000007598371
 55       0.000002132470
 56      -0.000002198467
 57      -0.000003746470
 58       0.000002195318
 59       0.000001324189
 60      -0.000002438184
 Sym=     1a
 Ene= -3.29174124729876E+01
 Spin= Alpha
 Occup= 1.000000
  1       0.000000159044
  2      -0.000002060711
  3      -0.000000910100
  4       0.000003270741
  5      -0.000000135205
  6       0.000000070112
  7      -0.000000053923
  8       0.000000045627
  9       0.121970478045
 10       0.427498364060
 11       0.055529579672
 12       0.300057019965
 13       1.051679747217
 14       0.136607161346
 15       0.003465800977
 16       0.012147635490
 17       0.001577840400
 18      -0.001044307593
 19      -0.003659937292
 20      -0.000475488326
 21       0.000677011436
 22       0.002372748268
 23       0.000308244016
 24      -0.000212452722
 25      -0.000744622642
 26      -0.000096724932
 27       0.000000540322
 28       0.000000443467
 29       0.000001217630
 30       0.000000884309
 31       0.000000302838
 32       0.000000008705
 33       0.000000013044
 34       0.000000037120
 35       0.000000020302
 36       0.000000020242
 37       0.000000067627
 38       0.000000048984
 39       0.000000133728
 40       0.000000104638
 41       0.000000021250
 42      -0.000000012375
 43      -0.000000007902
 44      -0.000000024783
 45      -0.000000019456
 46      -0.000000002349
 47      -0.000008082332
 48      -0.000013869475
 49      -0.000022147076
 50      -0.000025685025
 51      -0.000026565129
 52       0.000015975461
 53       0.000006850507
 54       0.000001592503
 55       0.000002730722
 56       0.000004361721
 57       0.000005057608
 58       0.000005228729
 59      -0.000003144820
 60      -0.000001347919
 Sym=     1a
 Ene= -2.24752251277060E+01
 Spin= Alpha
 Occup= 1.000000
  1      -0.000057156560
  2       0.000684542901
  3       0.000265565127
  4      -0.001294555120
  5       0.000431720660
  6      -0.000101066529
  7       0.000046126244
  8      -0.000021507746
  9      -0.000000540480
 10       0.000000123726
 11      -0.000000630463
 12      -0.000001385298
 13       0.000000319574
 14      -0.000001618481
 15      -0.000000071853
 16      -0.000000002058
 17      -0.000000064812
 18      -0.000000313350
 19       0.000000052178
 20      -0.000000345880
 21       0.000000135324
 22      -0.000000022500
 23       0.000000148742
 24       0.000000010170
 25      -0.000000001884
 26       0.000000011711
 27       0.441181526093
 28       0.744342259506
 29      -0.352472813072
 30       0.199244340252
 31      -0.243243772054
 32       0.015360025095
 33       0.025914744981
 34      -0.012271594731
 35       0.006936823052
 36      -0.008468700770
 37      -0.003126606223
 38      -0.005275049423
 39       0.002497963599
 40      -0.001412023139
 41       0.001723854072
 42       0.000735485763
 43       0.001240874407
 44      -0.000587605519
 45       0.000332156501
 46      -0.000405508972
 47       0.000000054804
 48       0.000000225125
 49      -0.000000166737
 50       0.000000045852
 51      -0.000000178620
 52       0.000000023664
 53       0.000000052337
 54      -0.000000007896
 55      -0.000000032214
 56       0.000000024717
 57      -0.000000005285
 58       0.000000027191
 59      -0.000000002832
 60      -0.000000007283
 Sym=     1a
 Ene= -2.24732090387573E+01
 Spin= Alpha
 Occup= 1.000000
  1       0.000000003162
  2      -0.000000019219
  3       0.000000001576
  4       0.000000086231
  5      -0.000000148523
  6       0.000000090070
  7      -0.000000008694
  8      -0.000000006661
  9      -0.000000510015
 10      -0.000000096621
 11       0.000000522300
 12      -0.000001310946
 13      -0.000000246961
 14       0.000001337321
 15      -0.000000037664
 16      -0.000000018872
 17       0.000000081077
 18      -0.000000258946
 19      -0.000000064625
 20       0.000000318389
 21       0.000000107677
 22       0.000000028861
 23      -0.000000137521
 24       0.000000011664
 25       0.000000001090
 26      -0.000000009555
 27      -0.745228897293
 28       0.355102275186
 29       0.200927241900
 30       0.469685815706
 31      -0.171444262592
 32      -0.025904763205
 33       0.012343640280
 34       0.006984427106
 35       0.016326645373
 36      -0.005959573711
 37       0.005266956157
 38      -0.002509704499
 39      -0.001420106183
 40      -0.003319517035
 41       0.001211733230
 42      -0.001238654659
 43       0.000590218596
 44       0.000333970633
 45       0.000780666972
 46      -0.000284966209
 47      -0.000000218448
 48       0.000000023775
 49       0.000000150522
 50       0.000000153125
 51      -0.000000071009
 52      -0.000000011502
 53       0.000000092711
 54       0.000000033574
 55      -0.000000001238
 56      -0.000000023865
 57      -0.000000021682
 58       0.000000009397
 59       0.000000002617
 60      -0.000000014257
 Sym=     1a
 Ene= -2.24732089969167E+01
 Spin= Alpha
 Occup= 1.000000
  1      -0.000000006774
  2       0.000000035316
  3      -0.000000007375
  4      -0.000000170864
  5       0.000000308943
  6      -0.000000190342
  7       0.000000020459
  8       0.000000012344
  9      -0.000000024538
 10       0.000000730886
 11       0.000000066027
 12      -0.000000061113
 13       0.000001874887
 14       0.000000172149
 15      -0.000000017574
 16       0.000000085012
 17      -0.000000015235
 18      -0.000000031453
 19       0.000000410138
 20       0.000000007967
 21       0.000000014893
 22      -0.000000174934
 23      -0.000000000122
 24      -0.000000000260
 25      -0.000000014446
 26      -0.000000003261
 27      -0.350635440467
 28      -0.203514565190
 29      -0.688064838216
 30      -0.290503483363
 31      -0.499644361892
 32      -0.012188386519
 33      -0.007074296991
 34      -0.023917722513
 35      -0.010098176020
 36      -0.017368046945
 37       0.002478157837
 38       0.001438310096
 39       0.004862982358
 40       0.002053201066
 41       0.003531274649
 42      -0.000582798065
 43      -0.000338256193
 44      -0.001143647098
 45      -0.000482857420
 46      -0.000830466356
 47      -0.000000164665
 48      -0.000000099612
 49      -0.000000112693
 50      -0.000000171444
 51      -0.000000129089
 52       0.000000109581
 53      -0.000000005409
 54       0.000000023024
 55       0.000000016440
 56       0.000000013059
 57       0.000000025974
 58       0.000000019749
 59      -0.000000018379
 60      -0.000000000984
 Sym=     1a
 Ene= -2.24671691162363E+01
 Spin= Alpha
 Occup= 1.000000
  1       0.000000001896
  2      -0.000000007579
  3       0.000000003760
  4       0.000000043894
  5      -0.000000086592
  6       0.000000054229
  7      -0.000000006598
  8      -0.000000002536
  9       0.000000180108
 10      -0.000000011121
 11      -0.000000127664
 12       0.000000458171
 13      -0.000000028067
 14      -0.000000324625
 15       0.000000051463
 16      -0.000000005246
 17      -0.000000037897
 18       0.000000136447
 19      -0.000000011433
 20      -0.000000099193
 21      -0.000000059472
 22       0.000000004803
 23       0.000000043436
 24      -0.000000002808
 25       0.000000000235
 26       0.000000001802
 27       0.022644121323
 28      -0.286343865336
 29      -0.524693301906
 30       0.641294706048
 31       0.450440321161
 32       0.000783460004
 33      -0.009906593213
 34      -0.018152729699
 35       0.022186760757
 36       0.015583827263
 37      -0.000158782620
 38       0.002007183796
 39       0.003677938491
 40      -0.004495267783
 41      -0.003157468261
 42       0.000037301682
 43      -0.000471572710
 44      -0.000864103924
 45       0.001056130505
 46       0.000741822430
 47      -0.000000035120
 48      -0.000000072074
 49      -0.000000185908
 50       0.000000049738
 51       0.000000102126
 52      -0.000000131023
 53       0.000000071351
 54       0.000000006899
 55       0.000000010815
 56       0.000000027347
 57      -0.000000005550
 58      -0.000000013591
 59       0.000000023093
 60      -0.000000012473
 Sym=     1a
 Ene= -2.24671691133338E+01
 Spin= Alpha
 Occup= 1.000000
  1       0.000000000952
  2      -0.000000003633
  3       0.000000002298
  4       0.000000027534
  5      -0.000000058973
  6       0.000000036930
  7      -0.000000003692
  8      -0.000000002380
  9      -0.000000043011
 10      -0.000000213704
 11      -0.000000040590
 12      -0.000000109601
 13      -0.000000543961
 14      -0.000000103227
 15      -0.000000010417
 16      -0.000000058297
 17      -0.000000011723
 18      -0.000000029224
 19      -0.000000158282
 20      -0.000000030689
 21       0.000000012478
 22       0.000000069662
 23       0.000000013075
 24       0.000000000879
 25       0.000000002843
 26       0.000000000897
 27       0.313644164573
 28      -0.410229191903
 29       0.241924547519
 30       0.464716725142
 31      -0.656364408208
 32       0.010851099352
 33      -0.014192610183
 34       0.008369856625
 35       0.016077756367
 36      -0.022708120444
 37      -0.002198552901
 38       0.002875552523
 39      -0.001695856807
 40      -0.003257554759
 41       0.004600897268
 42       0.000516533149
 43      -0.000675591430
 44       0.000398425741
 45       0.000765335747
 46      -0.001080947387
 47       0.000000140329
 48      -0.000000130277
 49       0.000000013249
 50       0.000000105600
 51      -0.000000071063
 52       0.000000071657
 53       0.000000132834
 54      -0.000000021985
 55       0.000000019945
 56      -0.000000000115
 57      -0.000000013764
 58       0.000000008625
 59      -0.000000011414
 60      -0.000000022130
 Sym=     1a
 Ene= -6.54873512265098E+00
 Spin= Alpha
 Occup= 1.000000
  1      -0.042533054907
  2       0.585251512812
  3       0.216234191980
  4      -1.454867776236
  5       0.281496140033
  6       1.094648904297
  7       0.089423457790
  8      -0.027776823817
  9      -0.000001982865
 10       0.000002483530
 11      -0.000004653708
 12      -0.000006886779
 13       0.000008604508
 14      -0.000016138668
 15       0.000009599303
 16      -0.000011694860
 17       0.000022151756
 18      -0.000002680524
 19       0.000004152080
 20      -0.000007204911
 21      -0.000000095843
 22      -0.000000146270
 23       0.000000078939
 24       0.000000082242
 25      -0.000000239213
 26       0.000000360638
 27      -0.000788585663
 28      -0.001330411726
 29       0.000630122336
 30      -0.000356028414
 31       0.000434833676
 32       0.001601874942
 33       0.002702477590
 34      -0.001280038540
 35       0.000723151105
 36      -0.000883313678
 37       0.000411710793
 38       0.000694710324
 39      -0.000328686198
 40       0.000186194025
 41      -0.000226885756
 42      -0.000049753347
 43      -0.000083893949
 44       0.000039886911
 45      -0.000022324292
 46       0.000027499409
 47       0.000000027637
 48      -0.000000026208
 49       0.000000167242
 50       0.000000116927
 51       0.000000086403
 52      -0.000000043736
 53       0.000000060674
 54      -0.000000298724
 55       0.000000004075
 56      -0.000000306489
 57      -0.000000478099
 58      -0.000000237711
 59      -0.000000048950
 60      -0.000000140967
 Sym=     1a
 Ene= -5.12108023614175E+00
 Spin= Alpha
 Occup= 1.000000
  1       0.000001162564
  2      -0.000016335922
  3      -0.000006117003
  4       0.000040625691
  5      -0.000007278053
  6      -0.000031843881
  7      -0.000001137995
  8       0.000000100192
  9      -0.106439012405
 10       0.050404048664
 11      -0.154236002560
 12      -0.371060429124
 13       0.175715120890
 14      -0.537687016767
 15       0.521805552330
 16      -0.247099725633
 17       0.756124713017
 18      -0.145890886666
 19       0.069087807728
 20      -0.211404727714
 21      -0.000557475913
 22       0.000263553800
 23      -0.000807549820
 24      -0.001733857758
 25       0.000820975278
 26      -0.002512413109
 27      -0.000002319771
 28      -0.000002958019
 29       0.000002277651
 30      -0.000000319621
 31       0.000001337300
 32       0.000004634195
 33       0.000005971762
 34      -0.000004550527
 35       0.000000671293
 36      -0.000002678930
 37       0.000002501562
 38       0.000002845794
 39      -0.000002454473
 40       0.000000163729
 41      -0.000001397778
 42       0.000000000352
 43       0.000000068387
 44       0.000000078464
 45       0.000000076221
 46       0.000000003288
 47      -0.000125595190
 48      -0.001447930556
 49       0.000686768172
 50      -0.000715969020
 51       0.000877047393
 52       0.000084244266
 53      -0.000342550350
 54      -0.000037512542
 55      -0.000428335624
 56       0.000202083121
 57      -0.000212955194
 58       0.000258659074
 59       0.000025126932
 60      -0.000101394325
 Sym=     1a
 Ene= -5.09833028550438E+00
 Spin= Alpha
 Occup= 1.000000
  1      -0.000000006869
  2       0.000000100539
  3       0.000000038559
  4      -0.000000256136
  5       0.000000072687
  6       0.000000162766
  7       0.000000016147
  8      -0.000000002788
  9       0.096232970253
 10      -0.129080099936
 11      -0.108594064389
 12       0.335538763008
 13      -0.450067954538
 14      -0.378638622652
 15      -0.472353807406
 16       0.633581830573
 17       0.533027706195
 18       0.131034819985
 19      -0.175761216929
 20      -0.147865722848
 21       0.000269171805
 22      -0.000360925155
 23      -0.000303880785
 24       0.001634263914
 25      -0.002192063755
 26      -0.001844213882
 27      -0.000003301485
 28       0.000000854151
 29      -0.000001274395
 30      -0.000000441408
 31      -0.000001871963
 32       0.000006628562
 33      -0.000001692238
 34       0.000002593125
 35       0.000000832315
 36       0.000003770564
 37       0.000003399284
 38      -0.000001000394
 39       0.000001123675
 40       0.000000746861
 41       0.000001863603
 42       0.000000047582
 43       0.000000027747
 44       0.000000027837
 45      -0.000000054576
 46       0.000000039895
 47      -0.001215472493
 48      -0.000561959034
 49      -0.000113893966
 50       0.000035042798
 51      -0.000811913390
 52       0.000118744101
 53       0.000470949442
 54      -0.000328227688
 55      -0.000152603111
 56      -0.000030814598
 57       0.000009651785
 58      -0.000219564560
 59       0.000031773414
 60       0.000127765911
 Sym=     1a
 Ene= -5.09833025796539E+00
 Spin= Alpha
 Occup= 1.000000
  1      -0.000000328871
  2       0.000004750822
  3       0.000001809486
  4      -0.000011963905
  5       0.000002780508
  6       0.000008535818
  7       0.000000177198
  8       0.000000268165
  9      -0.130797892009
 10      -0.136047966396
 11       0.045803839521
 12      -0.456057472463
 13      -0.474363048215
 14       0.159705783436
 15       0.642014036811
 16       0.667783144512
 17      -0.224825138279
 18      -0.178098982326
 19      -0.185249063471
 20       0.062369093554
 21      -0.000366128507
 22      -0.000380367603
 23       0.000127884852