[Molden Format]
[Title]
 Molden file created by orca_2mkl for BaseName=n

[Atoms] AU
N    1   7          0.0000000000         0.0000000000         0.0000000000 
[GTO]
  1 0
s   6 1.0 
    19789.0164810000        -0.9961906260
     2940.3775161000        -1.4191687667
      673.3184345400        -2.2718482680
      190.2106313000        -3.4961065748
       62.3830501380        -4.6891646469
       22.6404782570        -4.9484381455
s   2 1.0 
        9.0859780036        -2.3506210666
        3.7881647438        -0.7783055943
s   1 1.0 
        0.8507369488         0.6313301988
s   1 1.0 
        0.3375895856         0.3156471501
s   1 1.0 
        0.1364081813         0.1599706856
p   4 1.0 
       49.2376965300         2.1464428125
       11.3441151130         2.3323039917
        3.4255533305         2.0482452416
        1.1788352543         1.2605448748
p   1 1.0 
        0.4165103203         0.4769493886
p   1 1.0 
        0.1426413812         0.1249530920
d   1 1.0 
        1.6540000000         6.8771297418
d   1 1.0 
        0.4690000000         0.7577440909
f   1 1.0 
        1.0930000000         6.9645882147

[5D]
[7F]
[9G]
[MO]
 Sym=     1a
 Ene= -1.46231686382127E+01
 Spin= Alpha
 Occup= 1.000000
  1       0.447509849064
  2       0.627911515797
  3      -0.031653657805
  4       0.015774669139
  5      -0.005271449994
  6      -0.000000040557
  7      -0.000000018480
  8      -0.000000025762
  9       0.000000033851
 10       0.000000015431
 11       0.000000021657
 12      -0.000000008855
 13      -0.000000004141
 14      -0.000000005718
 15      -0.000000001173
 16       0.000000003633
 17       0.000000001549
 18       0.000000004073
 19       0.000000004809
 20       0.000000000669
 21      -0.000000002138
 22      -0.000000000857
 23      -0.000000002297
 24      -0.000000002710
 25      -0.000000000249
 26      -0.000000000447
 27      -0.000000000400
 28       0.000000000737
 29       0.000000000848
 30      -0.000000000361
 31      -0.000000001219
 Sym=     1a
 Ene= -9.25967100052242E-01
 Spin= Alpha
 Occup= 1.000000
  1      -0.112294258233
  2      -0.259778933002
  3      -0.423468307145
  4      -0.519527205757
  5      -0.192531569380
  6      -0.000000279761
  7      -0.000000125276
  8      -0.000000177375
  9      -0.000000394189
 10      -0.000000177032
 11      -0.000000249278
 12       0.000000234776
 13       0.000000103154
 14       0.000000151425
 15      -0.000000282293
 16       0.000000825170
 17       0.000000343577
 18       0.000000861634
 19       0.000001031963
 20       0.000000138833
 21      -0.000000404894
 22      -0.000000169088
 23      -0.000000422254
 24      -0.000000505917
 25       0.000000026239
 26      -0.000000020142
 27      -0.000000018031
 28       0.000000011254
 29       0.000000017234
 30      -0.000000006797
 31      -0.000000014020
 Sym=     1a
 Ene= -4.62505782815361E-01
 Spin= Alpha
 Occup= 1.000000
  1       0.000000003815
  2       0.000000011415
  3       0.000000004575
  4      -0.000000025447
  5       0.000000152155
  6       0.154611883957
  7       0.044127479403
  8      -0.470984410846
  9       0.132504489812
 10       0.037817851339
 11      -0.403640060554
 12       0.084565729439
 13       0.024135742675
 14      -0.257607252947
 15       0.000001568542
 16       0.000000594128
 17       0.000000105736
 18      -0.000000087880
 19      -0.000000117463
 20      -0.000001232644
 21      -0.000000693803
 22      -0.000000254770
 23       0.000000193137
 24       0.000000182663
 25       0.000000150888
 26      -0.000000078585
 27      -0.000000061420
 28       0.000000008782
 29       0.000000027115
 30      -0.000000004008
 31       0.000000005322
 Sym=     1a
 Ene= -4.62505779684555E-01
 Spin= Alpha
 Occup= 1.000000
  1       0.000000000014
  2      -0.000000000015
  3      -0.000000001196
  4      -0.000000003200
  5       0.000000009790
  6      -0.197240502186
  7       0.456389159471
  8      -0.021988883652
  9      -0.169037796801
 10       0.391131726924
 11      -0.018844773627
 12      -0.107881660156
 13       0.249624292769
 14      -0.012026929198
 15       0.000000287150
 16       0.000000206565
 17      -0.000000392730
 18       0.000000611894
 19      -0.000000497557
 20      -0.000000159525
 21      -0.000000262953
 22       0.000000501439
 23      -0.000000738743
 24       0.000000640223
 25       0.000000024087
 26      -0.000000005079
 27      -0.000000018485
 28       0.000000002717
 29       0.000000015839
 30       0.000000015670
 31      -0.000000006296
 Sym=     1a
 Ene= -4.62505767695351E-01
 Spin= Alpha
 Occup= 1.000000
  1       0.000000022319
  2       0.000000063740
  3       0.000000042881
  4      -0.000000108352
  5       0.000000730346
  6      -0.429964766805
  7      -0.193494401737
  8      -0.159275081186
  9      -0.368485703852
 10      -0.165827357188
 11      -0.136500931865
 12      -0.235171422380
 13      -0.105832751150
 14      -0.087116323232
 15      -0.000001808899
 16       0.000003464124
 17       0.000001496871
 18       0.000003233332
 19       0.000003867796
 20       0.000001050664
 21      -0.000002108149
 22      -0.000000920030
 23      -0.000001898685
 24      -0.000002243845
 25       0.000000034884
 26       0.000000024469
 27       0.000000010863
 28      -0.000000011055
 29      -0.000000007604
 30      -0.000000001388
 31       0.000000005906
 Sym=     1a
 Ene= 3.03612222608789E-01
 Spin= Alpha
 Occup= 0.000000
  1       0.056213716704
  2       0.115227682704
  3      -0.056616263491
  4       1.820177126675
  5      -2.031423770275
  6       0.000000167927
  7       0.000000073682
  8       0.000000101353
  9       0.000000235945
 10       0.000000091321
 11       0.000000147423
 12      -0.000000932949
 13      -0.000000395180
 14      -0.000000588241
 15      -0.000002622386
 16       0.000008269743
 17       0.000003431284
 18       0.000008968997
 19       0.000010693023
 20       0.000001406894
 21      -0.000004440259
 22      -0.000001843294
 23      -0.000004815266
 24      -0.000005741236
 25       0.000000392237
 26      -0.000000172626
 27      -0.000000157129
 28       0.000000003704
 29       0.000000055085
 30      -0.000000022730
 31       0.000000046266
 Sym=     1a
 Ene= 4.00435777120579E-01
 Spin= Alpha
 Occup= 0.000000
  1      -0.000000062761
  2      -0.000000117430
  3       0.000000345845
  4      -0.000002404992
  5       0.000002011095
  6       0.214098655783
  7       0.100162541634
  8       0.158400140902
  9       0.532524109217
 10       0.249132663993
 11       0.393986117404
 12      -0.961752970949
 13      -0.449940341962
 14      -0.711549614960
 15      -0.000006391340
 16       0.000017772967
 17       0.000007512132
 18       0.000015438218
 19       0.000018414656
 20       0.000003501453
 21      -0.000009616471
 22      -0.000004057933
 23      -0.000008403801
 24      -0.000010025059
 25       0.000000377524
 26       0.000000019447
 27      -0.000000028073
 28      -0.000000029700
 29       0.000000015824
 30      -0.000000018200
 31       0.000000017545
 Sym=     1a
 Ene= 4.00435781099257E-01
 Spin= Alpha
 Occup= 0.000000
  1       0.000000003647
  2       0.000000006387
  3      -0.000000028131
  4       0.000000162041
  5      -0.000000133991
  6      -0.138948721561
  7      -0.076545842951
  8       0.236210373326
  9      -0.345604929463
 10      -0.190391249724
 11       0.587522307137
 12       0.624171882985
 13       0.343851765171
 14      -1.061081249932
 15       0.000011014281
 16      -0.000000905625
 17      -0.000001336905
 18      -0.000004637554
 19      -0.000006174984
 20      -0.000005899667
 21       0.000000588729
 22       0.000000772862
 23       0.000002492260
 24       0.000003316676
 25       0.000000733001
 26      -0.000000415953
 27      -0.000000326094
 28       0.000000070051
 29       0.000000164366
 30      -0.000000007629
 31       0.000000031253
 Sym=     1a
 Ene= 4.00435787047701E-01
 Spin= Alpha
 Occup= 0.000000
  1       0.000000002305
  2       0.000000005354
  3       0.000000002210
  4       0.000000056838
  5      -0.000000058965
  6      -0.125763212483
  7       0.255087340116
  8       0.008683944715
  9      -0.312808845590
 10       0.634474701407
 11       0.021599439222
 12       0.564941274161
 13      -1.145878550300
 14      -0.039009174354
 15      -0.000000479167
 16      -0.000001441754
 17       0.000002483802
 18      -0.000004376965
 19       0.000002697364
 20       0.000000271548
 21       0.000000751923
 22      -0.000001269993
 23       0.000002265226
 24      -0.000001365467
 25      -0.000000061645
 26      -0.000000014186
 27       0.000000072596
 28      -0.000000020361
 29      -0.000000059552
 30      -0.000000055517
 31       0.000000028356
 Sym=     1a
 Ene= 1.07832176735829E+00
 Spin= Alpha
 Occup= 0.000000
  1      -0.000000039477
  2      -0.000000107796
  3      -0.000000383921
  4      -0.000000098374
  5       0.000000434608
  6       0.000000156574
  7       0.000000078511
  8       0.000000086662
  9      -0.000000575678
 10      -0.000000262796
 11      -0.000000172910
 12       0.000001171680
 13       0.000000539751
 14       0.000000386709
 15      -0.001365869525
 16       0.002635082312
 17       0.001242174237
 18       0.001969128326
 19       0.002351599549
 20       0.307986470369
 21      -0.594168081605
 22      -0.280094307676
 23      -0.443993919375
 24      -0.530228201326
 25       0.000000066331
 26       0.000000010239
 27       0.000000005727
 28      -0.000000063567
 29      -0.000000076950
 30       0.000000021280
 31       0.000000077524
 Sym=     1a
 Ene= 1.07832180258405E+00
 Spin= Alpha
 Occup= 0.000000
  1      -0.000000001807
  2      -0.000000005083
  3      -0.000000019532
  4      -0.000000000064
  5       0.000000016654
  6       0.000000057690
  7       0.000000072715
  8      -0.000000359552
  9      -0.000000036904
 10      -0.000000010363
 11      -0.000000134955
 12       0.000000143654
 13       0.000000115961
 14      -0.000000262636
 15      -0.002709925574
 16      -0.002849998306
 17      -0.001099956776
 18       0.000718269216
 19       0.001599259426
 20       0.611191169078
 21       0.642787019241
 22       0.248087533547
 23      -0.161999943155
 24      -0.360685958083
 25      -0.000000009222
 26       0.000000108291
 27       0.000000050056
 28       0.000000036322
 29       0.000000027165
 30      -0.000000000431
 31       0.000000045437
 Sym=     1a
 Ene= 1.07832181866491E+00
 Spin= Alpha
 Occup= 0.000000
  1      -0.000000000581
  2      -0.000000001600
  3      -0.000000005947
  4      -0.000000000076
  5       0.000000004849
  6       0.000000182279
  7      -0.000000353519
  8      -0.000000046206
  9       0.000000086363
 10      -0.000000185303
 11      -0.000000033483
 12       0.000000101327
 13      -0.000000163879
 14      -0.000000007310
 15      -0.000345249872
 16       0.000427034896
 17      -0.001731780206
 18       0.003222414330
 19      -0.002462590531
 20       0.077873882617
 21      -0.096309323103
 22       0.390591299244
 23      -0.726792552548
 24       0.555415768715
 25      -0.000000000338
 26       0.000000013280
 27       0.000000005443
 28      -0.000000061262
 29       0.000000058293
 30       0.000000102065
 31      -0.000000022765
 Sym=     1a
 Ene= 1.07832187138816E+00
 Spin= Alpha
 Occup= 0.000000
  1       0.000000000562
  2       0.000000001655
  3       0.000000007049
  4      -0.000000001142
  5      -0.000000005435
  6       0.000000018369
  7      -0.000000046163
  8      -0.000000005623
  9       0.000000009705
 10      -0.000000030206
 11      -0.000000008325
 12       0.000000009535
 13      -0.000000015595
 14       0.000000004974
 15      -0.000483508528
 16       0.001892862118
 17      -0.003566287169
 18      -0.001594666258
 19       0.000817261672
 20       0.109059544611
 21      -0.426951135957
 22       0.804408925448
 23       0.359692871521
 24      -0.184339904898
 25       0.000000010910
 26      -0.000000025592
 27       0.000000064975
 28      -0.000000045958
 29       0.000000040006
 30      -0.000000044324
 31       0.000000001820
 Sym=     1a
 Ene= 1.07832187711125E+00
 Spin= Alpha
 Occup= 0.000000
  1       0.000000009798
  2       0.000000027006
  3       0.000000098915
  4       0.000000016422
  5      -0.000000102875
  6       0.000000009146
  7      -0.000000001124
  8      -0.000000010364
  9       0.000000051981
 10      -0.000000000676
 11       0.000000113944
 12      -0.000000075200
 13       0.000000011061
 14      -0.000000220817
 15      -0.003191601238
 16       0.000959490785
 17       0.001130122308
 18      -0.001558923612
 19      -0.002220818504
 20       0.719893606841
 21      -0.216430650918
 22      -0.254911341596
 23       0.351617278133
 24       0.500910822076
 25       0.000000063456
 26       0.000000038343
 27       0.000000007778
 28       0.000000009868
 29      -0.000000005104
 30      -0.000000011716
 31      -0.000000066171
 Sym=     1a
 Ene= 1.85943639690119E+00
 Spin= Alpha
 Occup= 0.000000
  1       0.130618280367
  2       0.432101415330
  3       2.858741407898
  4      -3.812084604434
  5       1.591610254791
  6       0.000002872169
  7       0.000001317394
  8       0.000001804572
  9      -0.000004102233
 10      -0.000001882664
 11      -0.000002578942
 12       0.000001953142
 13       0.000000898627
 14       0.000001226933
 15       0.000002806786
 16      -0.000009265635
 17      -0.000003836321
 18      -0.000010269669
 19      -0.000012211777
 20      -0.000001430953
 21       0.000004724298
 22       0.000001955446
 23       0.000005235227
 24       0.000006225392
 25      -0.000000503908
 26       0.000000251530
 27       0.000000226298
 28      -0.000000043395
 29      -0.000000115287
 30       0.000000048372
 31      -0.000000001005
 Sym=     1a
 Ene= 2.02548308584199E+00
 Spin= Alpha
 Occup= 0.000000
  1      -0.000000377796
  2      -0.000001296858
  3      -0.000008611216
  4       0.000011299325
  5      -0.000004569953
  6       0.982297511656
  7       0.466209181455
  8       0.583050006268
  9      -1.335481839318
 10      -0.633834340460
 11      -0.792685198398
 12       0.607136510898
 13       0.288153652228
 14       0.360370398484
 15       0.000007004657
 16      -0.000016675975
 17      -0.000007117142
 18      -0.000014976924
 19      -0.000017912702
 20      -0.000003655039
 21       0.000008713651
 22       0.000003719876
 23       0.000007816878
 24       0.000009348759
 25      -0.000000331411
 26      -0.000000067490
 27      -0.000000004857
 28       0.000000034775
 29      -0.000000006072
 30       0.000000021783
 31      -0.000000006865
 Sym=     1a
 Ene= 2.02548309953253E+00
 Spin= Alpha
 Occup= 0.000000
  1       0.000000010124
  2       0.000000034814
  3       0.000000232566
  4      -0.000000306525
  5       0.000000125557
  6       0.521104302588
  7       0.261782674729
  8      -1.087256558271
  9      -0.708466967879
 10      -0.355906441041
 11       1.478178852726
 12       0.322083117199
 13       0.161802118279
 14      -0.672009383012
 15       0.000009918412
 16       0.000000570156
 17      -0.000000631412
 18      -0.000003020421
 19      -0.000004015716
 20      -0.000005183840
 21      -0.000000316053
 22       0.000000320231
 23       0.000001581068
 24       0.000002101588
 25       0.000000844681
 26      -0.000000447550
 27      -0.000000354889
 28       0.000000077231
 29       0.000000183674
 30      -0.000000010380
 31       0.000000041885
 Sym=     1a
 Ene= 2.02548311008240E+00
 Spin= Alpha
 Occup= 0.000000
  1       0.000000004199
  2       0.000000014167
  3       0.000000095369
  4      -0.000000126521
  5       0.000000052503
  6      -0.534554589324
  7       1.111901757759
  8       0.011513307858
  9       0.726753297607
 10      -1.511685214966
 11      -0.015652909484
 12      -0.330396441636
 13       0.687242035560
 14       0.007116122251
 15       0.000000707889
 16       0.000001366063
 17      -0.000002270862
 18       0.000003962601
 19      -0.000002460086
 20      -0.000000366689
 21      -0.000000718488
 22       0.000001197549
 23      -0.000002085431
 24       0.000001302473
 25       0.000000088444
 26       0.000000006505
 27      -0.000000090369
 28       0.000000028435
 29       0.000000066694
 30       0.000000051422
 31      -0.000000028220
 Sym=     1a
 Ene= 3.88099624718405E+00
 Spin= Alpha
 Occup= 0.000000
  1      -0.000000016927
  2      -0.000000052120
  3      -0.000000534781
  4       0.000001064412
  5      -0.000000691438
  6      -0.000000010424
  7      -0.000000009759
  8      -0.000000412027
  9       0.000000024422
 10       0.000000021726
 11       0.000000873223
 12      -0.000000030249
 13      -0.000000023490
 14      -0.000000772033
 15      -0.000000110517
 16       0.000000220491
 17       0.000000150012
 18       0.000000066974
 19       0.000000101402
 20       0.000000093186
 21      -0.000000209928
 22      -0.000000130776
 23      -0.000000086438
 24      -0.000000118893
 25      -0.549863559423
 26      -0.009738475973
 27       0.018728016982
 28       0.423241610915
 29       0.612187668394
 30      -0.100377704587
 31      -0.364995347042
 Sym=     1a
 Ene= 3.88099625219614E+00
 Spin= Alpha
 Occup= 0.000000
  1       0.000000033411
  2       0.000000089453
  3       0.000000745523
  4      -0.000001256838
  5       0.000000743361
  6      -0.000000225808
  7      -0.000000129149
  8       0.000000363100
  9       0.000000478635
 10       0.000000274102
 11      -0.000000770089
 12      -0.000000425079
 13      -0.000000242918
 14       0.000000683865
 15      -0.000000304941
 16      -0.000000273773
 17      -0.000000125257
 18       0.000000065789
 19       0.000000037900
 20       0.000000250445
 21       0.000000211018
 22       0.000000095471
 23      -0.000000078362
 24      -0.000000065765
 25      -0.005656596208
 26      -0.798654694509
 27      -0.347822865592
 28      -0.138750540277
 29      -0.180019753700
 30      -0.137014213599
 31      -0.413166089064
 Sym=     1a
 Ene= 3.88099626494594E+00
 Spin= Alpha
 Occup= 0.000000
  1       0.000000001405
  2       0.000000004117
  3       0.000000039115
  4      -0.000000074452
  5       0.000000047894
  6       0.000000017151
  7      -0.000000069535
  8       0.000000059535
  9      -0.000000036584
 10       0.000000148215
 11      -0.000000126510
 12       0.000000036861
 13      -0.000000140265
 14       0.000000111801
 15       0.000000011524
 16      -0.000000119071
 17       0.000000228489
 18      -0.000000333318
 19       0.000000278912
 20      -0.000000006087
 21       0.000000090459
 22      -0.000000164280
 23       0.000000266951
 24      -0.000000223195
 25       0.030276075149
 26       0.026890125798
 27      -0.083498845513
 28      -0.521390025193
 29       0.381966377405
 30       0.726432749268
 31      -0.214331080708
 Sym=     1a
 Ene= 3.88099628171716E+00
 Spin= Alpha
 Occup= 0.000000
  1       0.000000004947
  2       0.000000013894
  3       0.000000125420
  4      -0.000000227065
  5       0.000000140235
  6       0.000000016291
  7       0.000000066296
  8       0.000000082039
  9      -0.000000034375
 10      -0.000000139934
 11      -0.000000173751
 12       0.000000029625
 13       0.000000122823
 14       0.000000152242
 15       0.000000149394
 16      -0.000000384586
 17       0.000000721400
 18       0.000000230765
 19      -0.000000081829
 20      -0.000000094173
 21       0.000000244868
 22      -0.000000453791
 23      -0.000000153407
 24       0.000000059853
 25       0.147939517876
 26      -0.156937273485
 27       0.526325870730
 28      -0.509661232703
 29       0.397933962734
 30      -0.507705502246
 31       0.024388136723
 Sym=     1a
 Ene= 3.88099629168175E+00
 Spin= Alpha
 Occup= 0.000000
  1      -0.000000020291
  2      -0.000000053865
  3      -0.000000441972
  4       0.000000733445
  5      -0.000000429306
  6      -0.000000090405
  7       0.000000024039
  8      -0.000000290304
  9       0.000000189675
 10      -0.000000051118
 11       0.000000613436
 12      -0.000000161354
 13       0.000000046366
 14      -0.000000535075
 15      -0.000000642421
 16       0.000000142398
 17       0.000000244463
 18      -0.000000284615
 19      -0.000000416493
 20       0.000000400351
 21      -0.000000074662
 22      -0.000000147828
 23       0.000000191302
 24       0.000000274800
 25      -0.515973721782
 26      -0.368040508383
 27      -0.071999837257
 28      -0.124316939985
 29       0.082867085742
 30       0.114395946218
 31       0.746810041494
 Sym=     1a
 Ene= 3.88099633532288E+00
 Spin= Alpha
 Occup= 0.000000
  1      -0.000000061111
  2      -0.000000167511
  3      -0.000001453139
  4       0.000002543148
  5      -0.000001540124
  6       0.000000163024
  7       0.000000230465
  8      -0.000000867873
  9      -0.000000345238
 10      -0.000000487210
 11       0.000001836678
 12       0.000000302356
 13       0.000000424990
 14      -0.000001607606
 15      -0.000000018334
 16       0.000000008528
 17       0.000000052051
 18      -0.000000055022
 19      -0.000000072008
 20       0.000000013956
 21      -0.000000005350
 22      -0.000000036780
 23       0.000000033129
 24       0.000000042330
 25      -0.581825421254
 26       0.106601870569
 27       0.459018644218
 28      -0.244277238253
 29      -0.530746125379
 30       0.088156248610
 31      -0.300470899971
 Sym=     1a
 Ene= 3.88099633801801E+00
 Spin= Alpha
 Occup= 0.000000
  1       0.000000012417
  2       0.000000034170
  3       0.000000298656
  4      -0.000000525939
  5       0.000000319368
  6      -0.000000073246
  7      -0.000000034550
  8       0.000000234829
  9       0.000000154236
 10       0.000000073317
 11      -0.000000496341
 12      -0.000000132469
 13      -0.000000067093
 14       0.000000433133
 15       0.000000006422
 16      -0.000000015330
 17       0.000000036720
 18       0.000000017156
 19      -0.000000009201
 20      -0.000000006604
 21       0.000000017161
 22      -0.000000034842
 23      -0.000000007339
 24       0.000000000516
 25       0.264699121406
 26      -0.435758740280
 27       0.615463600747
 28       0.441459652942
 29      -0.003315308900
 30       0.405985281498
 31       0.039135486572
 Sym=     1a
 Ene= 4.39887163371276E+00
 Spin= Alpha
 Occup= 0.000000
  1       0.000001942729
  2       0.000005025583
  3       0.000046520368
  4      -0.000085348625
  5       0.000054138571
  6       0.000023915642
  7       0.000010991349
  8       0.000007729119
  9      -0.000053822699
 10      -0.000024758781
 11      -0.000017539929
 12       0.000050026402
 13       0.000023028907
 14       0.000016451331
 15      -0.332099045884
 16       0.662059505424
 17       0.298217683540
 18       0.541052636453
 19       0.664028247119
 20       0.171720827979
 21      -0.342335842512
 22      -0.154201549866
 23      -0.279765954745
 24      -0.343353833160
 25       0.000000093916
 26      -0.000000041511
 27       0.000000001041
 28      -0.000000132317
 29      -0.000000163283
 30       0.000000023599
 31       0.000000085731
 Sym=     1a
 Ene= 4.39887547703535E+00
 Spin= Alpha
 Occup= 0.000000
  1       0.000000026105
  2       0.000000066476
  3       0.000000606952
  4      -0.000001090483
  5       0.000000674931
  6       0.000001514841
  7       0.000003472378
  8      -0.000005687399
  9      -0.000003339481
 10      -0.000008059858
 11       0.000013186563
 12       0.000003053052
 13       0.000007466457
 14      -0.000012193799
 15      -0.624754131620
 16      -0.760241484929
 17      -0.110080883041
 18      -0.140223520803
 19       0.609222911407
 20       0.323046600113
 21       0.393104126623
 22       0.056920400077
 23       0.072506493703
 24      -0.315015747855
 25      -0.000000028552
 26       0.000000261894
 27       0.000000128277
 28       0.000000180276
 29      -0.000000020936
 30      -0.000000094283
 31       0.000000117386
 Sym=     1a
 Ene= 4.39887584634958E+00
 Spin= Alpha
 Occup= 0.000000
  1      -0.000000050800
  2      -0.000000129795
  3      -0.000001188848
  4       0.000002146046
  5      -0.000001335419
  6      -0.000003113028
  7       0.000002754933
  8       0.000002387125
  9       0.000007234626
 10      -0.000006650561
 11      -0.000005594642
 12      -0.000006684166
 13       0.000006198731
 14       0.000005173262
 15       0.332412328462
 16       0.168827358597
 17       0.542125610189
 18      -0.856549764406
 19       0.452371003197
 20      -0.171883119265
 21      -0.087296921875
 22      -0.280321254824
 23       0.442903082807
 24      -0.233911116677
 25       0.000000015889
 26      -0.000000144886
 27      -0.000000101144
 28       0.000000208718
 29      -0.000000235342
 30      -0.000000245273
 31       0.000000029817
 Sym=     1a
 Ene= 4.39887676818797E+00
 Spin= Alpha
 Occup= 0.000000
  1       0.000000388534
  2       0.000000993646
  3       0.000009111269
  4      -0.000016469614
  5       0.000010262015
  6       0.000000159027
  7      -0.000000863566
  8       0.000004379839
  9      -0.000000334915
 10       0.000001907437
 11      -0.000009695955
 12       0.000000319030
 13      -0.000001726601
 14       0.000008834513
 15       0.857461986605
 16      -0.270379149456
 17      -0.345149169896
 18       0.357782238765
 19       0.561903740362
 20      -0.443374945281
 21       0.139807178183
 22       0.178469129644
 23      -0.185001414575
 24      -0.290548203745
 25      -0.000000472811
 26      -0.000000320537
 27      -0.000000050891
 28      -0.000000071803
 29       0.000000060711
 30       0.000000078814
 31       0.000000465091
 Sym=     1a
 Ene= 4.39887690113256E+00
 Spin= Alpha
 Occup= 0.000000
  1      -0.000000054787
  2      -0.000000139318
  3      -0.000001271457
  4       0.000002280350
  5      -0.000001407201
  6       0.000000052035
  7      -0.000000319997
  8      -0.000000171873
  9      -0.000000140729
 10       0.000000769948
 11       0.000000392656
 12       0.000000128486
 13      -0.000000702452
 14      -0.000000355284
 15      -0.157706429447
 16       0.503309412018
 17      -0.925817541780
 18      -0.443995057307
 19       0.196866510527
 20       0.081546569727
 21      -0.260250366353
 22       0.478720144331
 23       0.229580200934
 24      -0.101795396915
 25       0.000000095321
 26      -0.000000127493
 27       0.000000415332
 28      -0.000000382402
 29       0.000000308847
 30      -0.000000316987
 31       0.000000002455
 Sym=     1a
 Ene= 3.15267461258044E+01
 Spin= Alpha
 Occup= 0.000000
  1      -1.382943499567
  2       1.662952039907
  3       1.307154390772
  4      -1.106272035014
  5       0.397279977156
  6       0.000000004765
  7       0.000000002243
  8       0.000000003015
  9      -0.000000004309
 10      -0.000000002132
 11      -0.000000002655
 12       0.000000002859
 13       0.000000001457
 14       0.000000001819
 15      -0.000000062314
 16       0.000000208719
 17       0.000000086360
 18       0.000000232876
 19       0.000000276696
 20       0.000000032347
 21      -0.000000108332
 22      -0.000000044828
 23      -0.000000120877
 24      -0.000000143621
 25       0.000000008950
 26      -0.000000004703
 27      -0.000000004214
 28       0.000000001073
 29       0.000000002402
 30      -0.000000001009
 31      -0.000000000443
 Sym=     1a
 Ene= -1.45644873086484E+01
 Spin=Beta
 Occup= 1.000000
  1      -0.449290970756
  2      -0.628765443003
  3       0.023621482787
  4      -0.009801577889
  5       0.002860423058
  6       0.000000069044
  7       0.000000031589
  8       0.000000044010
  9      -0.000000043048
 10      -0.000000019675
 11      -0.000000027576
 12       0.000000017007
 13       0.000000007802
 14       0.000000010990
 15      -0.000000000166
 16       0.000000001324
 17       0.000000000540
 18       0.000000001492
 19       0.000000001806
 20       0.000000000069
 21      -0.000000000630
 22      -0.000000000241
 23      -0.000000000731
 24      -0.000000000855
 25       0.000000000362
 26       0.000000000364
 27       0.000000000326
 28      -0.000000000654
 29      -0.000000000817
 30       0.000000000335
 31       0.000000001097
 Sym=     1a
 Ene= -7.32477260041783E-01
 Spin=Beta
 Occup= 1.000000
  1       0.106132224895
  2       0.243451264839
  3       0.377701573576
  4       0.484787657104
  5       0.274815600431
  6       0.000000419232
  7       0.000000210254
  8       0.000000255994
  9       0.000000270172
 10       0.000000139804
 11       0.000000158979
 12      -0.000000174293
 13      -0.000000074343
 14      -0.000000114850
 15       0.000000020532
 16      -0.000000045135
 17      -0.000000019427
 18      -0.000000044469
 19      -0.000000053619
 20      -0.000000007566
 21       0.000000044780
 22       0.000000017718
 23       0.000000048548
 24       0.000000058768
 25      -0.000000005583
 26      -0.000000001611
 27      -0.000000001249
 28       0.000000005325
 29       0.000000005732
 30      -0.000000002117
 31      -0.000000008993
 Sym=     1a
 Ene= -4.97203102803908E-03
 Spin=Beta
 Occup= 0.000000
  1      -0.000000048581
  2      -0.000000108797
  3      -0.000000275071
  4      -0.000001054423
  5       0.000002008513
  6      -0.320011757998
  7      -0.148513353098
  8      -0.171424127921
  9      -0.233999420304
 10      -0.108596130065
 11      -0.125348978360
 12      -0.443833666148
 13      -0.205977513690
 14      -0.237753145606
 15      -0.000000131612
 16       0.000000237210
 17       0.000000096498
 18       0.000000243164
 19       0.000000291376
 20       0.000000134608
 21      -0.000000319372
 22      -0.000000139623
 23      -0.000000273693
 24      -0.000000328783
 25       0.000000010337
 26       0.000000000574
 27       0.000000000083
 28      -0.000000007887
 29      -0.000000008117
 30       0.000000002805
 31       0.000000012410
 Sym=     1a
 Ene= -4.97197668642057E-03
 Spin=Beta
 Occup= 0.000000
  1       0.000000005183