[Molden Format]
[Title]
 Molden file created by orca_2mkl for BaseName=o

[Atoms] AU
O    1   8          0.0000000000         0.0000000000         0.0000000000 
[GTO]
  1 0
s   6 1.0 
    27129.7236970000        -1.3234874362
     4027.0930191000        -1.8037542218
      922.4174896600        -2.8382552636
      260.4637393100        -4.3521041987
       85.4618186120        -5.8698341892
       31.0324506160        -6.3103924670
s   2 1.0 
       12.3927428510        -2.9410936390
        5.1198045492        -0.9908121807
s   1 1.0 
        1.1764031300         0.8050580940
s   1 1.0 
        0.4654613844         0.4016269386
s   1 1.0 
        0.1850087120         0.2010500692
p   4 1.0 
       63.3475235510         3.0953015469
       14.6246846980         3.3927967860
        4.4491599423         2.9482922336
        1.5277866789         1.7113020872
p   1 1.0 
        0.5294345837         0.6437325528
p   1 1.0 
        0.1747910545         0.1610976076
d   1 1.0 
        2.3140000000        12.3767310624
d   1 1.0 
        0.6450000000         1.3234257612
f   1 1.0 
        1.4280000000        12.7097950062

[5D]
[7F]
[9G]
[MO]
 Sym=     1a
 Ene= -1.94791316655500E+01
 Spin= Alpha
 Occup= 1.000000
  1       0.433967896896
  2       0.641155992520
  3      -0.030168724261
  4       0.013516892596
  5      -0.004303634118
  6       0.000000001840
  7      -0.000000000149
  8       0.000000002424
  9      -0.000000002968
 10      -0.000000000544
 11      -0.000000003023
 12       0.000000000238
 13      -0.000000000136
 14       0.000000000212
 15       0.000190200287
 16       0.000100933499
 17      -0.000439218998
 18      -0.000174542789
 19      -0.000084693783
 20      -0.000065751846
 21      -0.000034892684
 22       0.000151836908
 23       0.000060338841
 24       0.000029278156
 25       0.000000000007
 26       0.000000000031
 27      -0.000000000003
 28       0.000000000023
 29      -0.000000000029
 30      -0.000000000023
 31      -0.000000000024
 Sym=     1a
 Ene= -1.14138267880933E+00
 Spin= Alpha
 Occup= 1.000000
  1       0.110318661589
  2       0.265957598256
  3       0.409612954396
  4       0.524522099407
  5       0.204375929721
  6       0.000000080507
  7       0.000000058919
  8       0.000000042937
  9       0.000000060837
 10       0.000000045367
 11       0.000000032090
 12       0.000000015331
 13       0.000000005681
 14       0.000000014235
 15      -0.002041864982
 16      -0.001083558697
 17       0.004715155253
 18       0.001873768655
 19       0.000909213714
 20      -0.004673922175
 21      -0.002480345915
 22       0.010793122659
 23       0.004289071973
 24       0.002081210288
 25      -0.000000000351
 26      -0.000000000974
 27       0.000000000511
 28      -0.000000001777
 29       0.000000000501
 30       0.000000000287
 31      -0.000000000258
 Sym=     1a
 Ene= -5.65855270691892E-01
 Spin= Alpha
 Occup= 1.000000
  1      -0.000000001136
  2      -0.000000002691
  3      -0.000000003746
  4      -0.000000001641
  5      -0.000000011124
  6       0.377724725743
  7      -0.239120619831
  8      -0.273481296629
  9       0.311625207062
 10      -0.197275990593
 11      -0.225623740175
 12       0.174407888148
 13      -0.110409839929
 14      -0.126275293817
 15       0.000000005852
 16      -0.000000003648
 17       0.000000000933
 18      -0.000000000796
 19       0.000000002905
 20      -0.000000003382
 21      -0.000000008858
 22      -0.000000013346
 23       0.000000013299
 24       0.000000001086
 25       0.003644067085
 26      -0.001174431066
 27      -0.002529877585
 28       0.000386572503
 29       0.003365825254
 30      -0.002128877984
 31       0.000240734479
 Sym=     1a
 Ene= -5.65855241686293E-01
 Spin= Alpha
 Occup= 1.000000
  1       0.000000015292
  2       0.000000037505
  3       0.000000057567
  4       0.000000023441
  5       0.000000132823
  6      -0.355114365271
  7      -0.326210408814
  8      -0.205249250220
  9      -0.292971469572
 10      -0.269125617736
 11      -0.169331802486
 12      -0.163967948736
 13      -0.150621904328
 14      -0.094770456197
 15       0.000000002552
 16       0.000000006398
 17       0.000000003225
 18       0.000000004618
 19       0.000000000214
 20       0.000000004790
 21       0.000000005267
 22      -0.000000004297
 23       0.000000011948
 24      -0.000000012394
 25       0.002734871078
 26       0.002592418316
 27      -0.001100402568
 28       0.002890217117
 29      -0.002832415449
 30       0.000848649141
 31       0.002149431700
 Sym=     1a
 Ene= -5.03759884832194E-01
 Spin= Alpha
 Occup= 1.000000
  1      -0.000000002173
  2      -0.000000005726
  3      -0.000000013458
  4      -0.000000004997
  5      -0.000000000823
  6       0.075172233414
  7      -0.327122649308
  8       0.389848183916
  9       0.061094970748
 10      -0.265863754503
 11       0.316842816770
 12       0.039951114422
 13      -0.173852231457
 14       0.207188504898
 15      -0.000000005019
 16      -0.000000003408
 17       0.000000005570
 18       0.000000000365
 19       0.000000001669
 20       0.000000004674
 21       0.000000005683
 22       0.000000004519
 23       0.000000002152
 24      -0.000000012029
 25       0.000368884912
 26      -0.001268540034
 27       0.005520040739
 28       0.004257385384
 29       0.002065812159
 30      -0.001042796461
 31       0.001295771924
 Sym=     1a
 Ene= 4.14893638763155E-01
 Spin= Alpha
 Occup= 0.000000
  1      -0.056318932870
  2      -0.120248185964
  3       0.060464285767
  4      -1.805393423909
  5       2.004099374385
  6      -0.000000161944
  7      -0.000000115426
  8      -0.000000090019
  9      -0.000000368210
 10      -0.000000268128
 11      -0.000000199927
 12       0.000000773189
 13       0.000000568209
 14       0.000000413280
 15       0.001613639914
 16       0.000856304463
 17      -0.003726335386
 18      -0.001480832387
 19      -0.000718526248
 20      -0.000558546646
 21      -0.000296409035
 22       0.001289826794
 23       0.000512564518
 24       0.000248702501
 25       0.000000000616
 26       0.000000000737
 27      -0.000000000358
 28       0.000000000612
 29      -0.000000000887
 30       0.000000000295
 31       0.000000000557
 Sym=     1a
 Ene= 4.71490866704353E-01
 Spin= Alpha
 Occup= 0.000000
  1      -0.000000005241
  2      -0.000000010736
  3       0.000000007458
  4      -0.000000164550
  5       0.000000178428
  6      -0.165255518243
  7       0.159768655607
  8       0.165927497569
  9      -0.376040484928
 10       0.363555103614
 11       0.377569540710
 12       0.729866640244
 13      -0.705633434727
 14      -0.732834413412
 15       0.000000003369
 16       0.000000001739
 17       0.000000004395
 18      -0.000000006390
 19       0.000000001028
 20       0.000000000462
 21       0.000000000697
 22       0.000000000840
 23      -0.000000001404
 24       0.000000000262
 25      -0.001499588403
 26       0.000247466607
 27       0.000986906667
 28      -0.000335600745
 29      -0.001021314762
 30       0.000709995429
 31      -0.000232733365
 Sym=     1a
 Ene= 4.71490905198935E-01
 Spin= Alpha
 Occup= 0.000000
  1      -0.000000048318
  2      -0.000000102147
  3       0.000000062004
  4      -0.000001526264
  5       0.000001656468
  6       0.226587463477
  7       0.149480464511
  8       0.081737725070
  9       0.515601841674
 10       0.340144288608
 11       0.185994821439
 12      -1.000744902120
 13      -0.660194875495
 14      -0.361002072131
 15      -0.000000001704
 16       0.000000005472
 17       0.000000000023
 18       0.000000001451
 19       0.000000006355
 20      -0.000000001100
 21       0.000000000696
 22       0.000000000975
 23       0.000000000674
 24       0.000000002018
 25      -0.000738720568
 26      -0.001014458664
 27       0.000225030069
 28      -0.001015865159
 29       0.001249791946
 30      -0.000450540416
 31      -0.000758673245
 Sym=     1a
 Ene= 4.94315817971898E-01
 Spin= Alpha
 Occup= 0.000000
  1       0.000000002704
  2       0.000000005328
  3      -0.000000007957
  4       0.000000097978
  5      -0.000000109249
  6      -0.042324293253
  7       0.184179256073
  8      -0.219495905533
  9      -0.097363401300
 10       0.423689179256
 11      -0.504931986257
 12       0.182637076376
 13      -0.794768718731
 14       0.947166304520
 15      -0.000000004523
 16      -0.000000005564
 17      -0.000000000820
 18      -0.000000003700
 19       0.000000003631
 20      -0.000000001247
 21      -0.000000001754
 22      -0.000000000952
 23      -0.000000001350
 24       0.000000001340
 25      -0.000146108023
 26       0.000502400336
 27      -0.002186219768
 28      -0.001686159579
 29      -0.000818158036
 30       0.000412996164
 31      -0.000513198805
 Sym=     1a
 Ene= 1.46891102002499E+00
 Spin= Alpha
 Occup= 0.000000
  1      -0.000000005710
  2      -0.000000017451
  3      -0.000000091689
  4       0.000000107830
  5      -0.000000055632
  6      -0.000000006095
  7       0.000000035354
  8       0.000000029791
  9       0.000000001166
 10      -0.000000026164
 11      -0.000000022958
 12      -0.000000002485
 13       0.000000013629
 14       0.000000011339
 15       0.000071401917
 16       0.000218369021
 17       0.000148431212
 18      -0.000261923351
 19       0.000190597842
 20      -0.168443538144
 21      -0.515197064476
 22      -0.350189661198
 23       0.617917969423
 24      -0.449641069484
 25       0.000000005442
 26      -0.000000007868
 27      -0.000000001119
 28       0.000000000943
 29      -0.000000011779
 30      -0.000000013844
 31       0.000000000106
 Sym=     1a
 Ene= 1.46891103210707E+00
 Spin= Alpha
 Occup= 0.000000
  1      -0.000000011549
  2      -0.000000035358
  3      -0.000000191997
  4       0.000000234731
  5      -0.000000122314
  6       0.000000037279
  7       0.000000005858
  8      -0.000000008043
  9      -0.000000039908
 10      -0.000000006539
 11      -0.000000001574
 12       0.000000013740
 13       0.000000001690
 14      -0.000000003788
 15      -0.000139048736
 16       0.000164905053
 17      -0.000153462777
 18       0.000203016076
 19       0.000261655194
 20       0.328032563288
 21      -0.389063214231
 22       0.362005602501
 23      -0.478965391127
 24      -0.617253847659
 25       0.000000004249
 26       0.000000004360
 27       0.000000007315
 28      -0.000000011145
 29      -0.000000003014
 30       0.000000000519
 31       0.000000014131
 Sym=     1a
 Ene= 1.50857765407051E+00
 Spin= Alpha
 Occup= 0.000000
  1       0.000000003392
  2       0.000000009156
  3       0.000000029701
  4      -0.000000022848
  5       0.000000028420
  6      -0.000000000850
  7       0.000000000679
  8      -0.000000002070
  9      -0.000000004397
 10       0.000000000506
 11       0.000000009645
 12      -0.000000000192
 13      -0.000000000025
 14      -0.000000000641
 15      -0.001655623442
 16       0.000757806844
 17      -0.000120583823
 18      -0.000592536132
 19      -0.000968460923
 20       0.771200989992
 21      -0.352995215501
 22       0.056171683393
 23       0.276010215131
 24       0.451113623053
 25       0.000000010324
 26       0.000000004917
 27       0.000000006654
 28      -0.000000002802
 29       0.000000000846
 30       0.000000000409
 31      -0.000000009625
 Sym=     1a
 Ene= 1.50857775481765E+00
 Spin= Alpha
 Occup= 0.000000
  1       0.000000017330
  2       0.000000047254
  3       0.000000136628
  4      -0.000000056105
  5       0.000000092535
  6      -0.000000000134
  7       0.000000030248
  8      -0.000000030895
  9       0.000000016236
 10      -0.000000017425
 11       0.000000031948
 12       0.000000000312
 13       0.000000010669
 14      -0.000000010583
 15      -0.000804142875
 16      -0.001396566144
 17      -0.000464085233
 18      -0.000968329182
 19       0.000932166580
 20       0.374568845317
 21       0.650529875307
 22       0.216172874284
 23       0.451052957902
 24      -0.434196486764
 25      -0.000000003985
 26       0.000000010091
 27       0.000000008108
 28       0.000000008942
 29       0.000000005082
 30      -0.000000011147
 31       0.000000001771
 Sym=     1a
 Ene= 1.52277023807916E+00
 Spin= Alpha
 Occup= 0.000000
  1       0.004366469704
  2       0.013202382404
  3       0.063451732587
  4      -0.065172255863
  5       0.032551846872
  6       0.000000017524
  7       0.000000018566
  8       0.000000008066
  9      -0.000000019195
 10      -0.000000019752
 11      -0.000000002209
 12       0.000000007381
 13       0.000000008194
 14       0.000000003691
 15      -0.001143574606
 16      -0.000606858743
 17       0.002640795639
 18       0.001049431111
 19       0.000509204059
 20       0.361906399205
 21       0.192051034398
 22      -0.835733917536
 23      -0.332116211801
 24      -0.161151023195
 25       0.000000006919
 26       0.000000008161
 27      -0.000000004446
 28       0.000000006975
 29      -0.000000009671
 30       0.000000003322
 31       0.000000005635
 Sym=     1a
 Ene= 2.50278024904690E+00
 Spin= Alpha
 Occup= 0.000000
  1      -0.000000012743
  2      -0.000000043916
  3      -0.000000281756
  4       0.000000371552
  5      -0.000000153737
  6       0.696264016979
  7      -0.671769282653
  8      -0.697939513795
  9      -0.947944994320
 10       0.914596051383
 11       0.950226152335
 12       0.427118355099
 13      -0.412092220800
 14      -0.428146186307
 15      -0.000000006078
 16      -0.000000003034
 17      -0.000000010569
 18       0.000000012283
 19      -0.000000002247
 20      -0.000000007195
 21      -0.000000003521
 22      -0.000000012302
 23       0.000000013945
 24      -0.000000002943
 25      -0.003166970299
 26       0.000524781679
 27       0.002084724159
 28      -0.000707191129
 29      -0.002160224561
 30       0.001500895081
 31      -0.000490324924
 Sym=     1a
 Ene= 2.50278036546153E+00
 Spin= Alpha
 Occup= 0.000000
  1       0.000000114735
  2       0.000000397660
  3       0.000002551846
  4      -0.000003369635
  5       0.000001395588
  6       0.952892702441
  7       0.629630806525
  8       0.344583252079
  9      -1.297338187870
 10      -0.857225646935
 11      -0.469140997950
 12       0.584545473873
 13       0.386242666354
 14       0.211382242815
 15      -0.000000009898
 16       0.000000007327
 17       0.000000015212
 18       0.000000008723
 19       0.000000015519
 20      -0.000000012507
 21       0.000000008194
 22       0.000000020025
 23       0.000000011331
 24       0.000000018597
 25       0.001563537154
 26       0.002142928012
 27      -0.000477265650
 28       0.002146972574
 29      -0.002638578900
 30       0.000950509395
 31       0.001603356947
 Sym=     1a
 Ene= 2.56789074649291E+00
 Spin= Alpha
 Occup= 0.000000
  1       0.000000033175
  2       0.000000115856
  3       0.000000743552
  4      -0.000000976931
  5       0.000000403758
  6       0.174720927645
  7      -0.760321728861
  8       0.906113854089
  9      -0.236629503405
 10       1.029725169765
 11      -1.227175607298
 12       0.105867689177
 13      -0.460697482693
 14       0.549036524010
 15       0.000000007479
 16       0.000000010078
 17       0.000000004446
 18       0.000000008330
 19      -0.000000006449
 20       0.000000009335
 21       0.000000012380
 22       0.000000005200
 23       0.000000010017
 24      -0.000000007967
 25      -0.000252290031
 26       0.000867406426
 27      -0.003774726503
 28      -0.002911313085
 29      -0.001412638462
 30       0.000713116095
 31      -0.000886137818
 Sym=     1a
 Ene= 2.60198066049282E+00
 Spin= Alpha
 Occup= 0.000000
  1       0.130081919284
  2       0.449376233864
  3       2.852502360066
  4      -3.741084128167
  5       1.539831890725
  6      -0.000000834525
  7      -0.000000436438
  8      -0.000000615149
  9       0.000001124454
 10       0.000000585412
 11       0.000000831376
 12      -0.000000503086
 13      -0.000000263228
 14      -0.000000370356
 15      -0.004435447560
 16      -0.002353740392
 17       0.010242658489
 18       0.004070398258
 19       0.001975034625
 20      -0.004964052888
 21      -0.002634302467
 22       0.011463224139
 23       0.004555385374
 24       0.002210368149
 25      -0.000000001980
 26      -0.000000002477
 27       0.000000001999
 28      -0.000000001330
 29       0.000000003026
 30      -0.000000001099
 31      -0.000000001441
 Sym=     1a
 Ene= 5.07004626786393E+00
 Spin= Alpha
 Occup= 0.000000
  1      -0.000000000081
  2      -0.000000000190
  3      -0.000000000263
  4      -0.000000000461
  5      -0.000000000210
  6       0.000000006819
  7      -0.000000013700
  8       0.000000053189
  9      -0.000000030720
 10      -0.000000009525
 11      -0.000000043788
 12       0.000000012527
 13       0.000000003961
 14       0.000000017550
 15       0.000000013775
 16      -0.000000028872
 17       0.000000012573
 18      -0.000000013399
 19      -0.000000039419
 20      -0.000000012138
 21       0.000000025409
 22      -0.000000011138
 23       0.000000011761
 24       0.000000034712
 25       0.215374278943
 26       0.009693895458
 27       0.316585412955
 28      -0.606585974605
 29      -0.163116183180
 30      -0.313027636889
 31       0.600627912610
 Sym=     1a
 Ene= 5.07004636575878E+00
 Spin= Alpha
 Occup= 0.000000
  1      -0.000000000019
  2      -0.000000000053
  3      -0.000000000106
  4      -0.000000000157
  5      -0.000000000059
  6       0.000000009882
  7      -0.000000037772
  8      -0.000000016167
  9      -0.000000024380
 10       0.000000042956
 11       0.000000029707
 12       0.000000009940
 13      -0.000000017227
 14      -0.000000011931
 15       0.000000014215
 16       0.000000019509
 17       0.000000024314
 18      -0.000000039948
 19       0.000000012011
 20      -0.000000012480
 21      -0.000000017211
 22      -0.000000021427
 23       0.000000035178
 24      -0.000000010561
 25      -0.042805343883
 26       0.407649914417
 27       0.031198892466
 28      -0.148973354259
 29       0.587900961617
 30       0.602907481604
 31       0.315749658109
 Sym=     1a
 Ene= 5.11521180235455E+00
 Spin= Alpha
 Occup= 0.000000
  1       0.000000000078
  2       0.000000000177
  3       0.000000000147
  4       0.000000000687
  5       0.000000000062
  6      -0.000000035889
  7      -0.000000046413
  8       0.000000009161
  9       0.000000037059
 10      -0.000000026631
 11       0.000000023463
 12       0.000000006971
 13       0.000000012345
 14      -0.000000012307
 15      -0.000000004509
 16       0.000000033460
 17       0.000000005051
 18       0.000000012881
 19      -0.000000022735
 20       0.000000003914
 21      -0.000000029626
 22      -0.000000004591
 23      -0.000000011294
 24       0.000000020412
 25      -0.551687289870
 26       0.431265074320
 27      -0.238755484136
 28       0.187174176739
 29       0.168320510426
 30      -0.569620620605
 31       0.254585487755
 Sym=     1a
 Ene= 5.11521190421227E+00
 Spin= Alpha
 Occup= 0.000000
  1       0.000000000002
  2       0.000000000019
  3       0.000000000096
  4      -0.000000000003
  5       0.000000000074
  6      -0.000000044512
  7       0.000000014348
  8       0.000000034096
  9      -0.000000002363
 10       0.000000020352
 11       0.000000039968
 12       0.000000002143
 13       0.000000008383
 14      -0.000000002340
 15       0.000000037677
 16       0.000000003333
 17       0.000000008472
 18       0.000000017035
 19       0.000000009561
 20      -0.000000033479
 21      -0.000000002800
 22      -0.000000007428
 23      -0.000000015360
 24      -0.000000008374
 25       0.293144429571
 26       0.633659798986
 27       0.325134947450
 28      -0.172912720937
 29       0.061945066070
 30      -0.231574710333
 31      -0.565213253356
 Sym=     1a
 Ene= 5.14108182027931E+00
 Spin= Alpha
 Occup= 0.000000
  1       0.000000000148
  2       0.000000000467
  3       0.000000002424
  4      -0.000000002355
  5       0.000000000807
  6      -0.001725417207
  7      -0.000528364004
  8      -0.000110611389
  9       0.011212774328
 10       0.003433514726
 11       0.000719145030
 12      -0.004563413498
 13      -0.001397401292
 14      -0.000292660875
 15       0.000000020224
 16       0.000000005375
 17      -0.000000030231
 18      -0.000000017547
 19      -0.000000020704
 20      -0.000000017535
 21      -0.000000005028
 22       0.000000026759
 23       0.000000015181
 24       0.000000017661
 25       0.070136416060
 26       0.463457335624
 27       0.062994419260
 28       0.371234267315
 29      -0.684974910918
 30       0.301321026855
 31       0.280099228173
 Sym=     1a
 Ene= 5.14108184792179E+00
 Spin= Alpha
 Occup= 0.000000
  1      -0.000000000117
  2      -0.000000000333
  3      -0.000000001390
  4       0.000000001090
  5      -0.000000000566
  6      -0.000470812914
  7       0.001291449559
  8       0.001174395692
  9       0.003059329897
 10      -0.008392111715
 11      -0.007631977639
 12      -0.001245100097
 13       0.003415464644
 14       0.003106077115
 15      -0.000000009723
 16       0.000000003108
 17       0.000000023691
 18      -0.000000006104
 19       0.000000006661
 20       0.000000008695
 21      -0.000000002438
 22      -0.000000020527
 23       0.000000004882
 24      -0.000000005608
 25      -0.744419890643
 26      -0.058003159268
 27       0.448369508582
 28      -0.301957053247
 29      -0.228025162884
 30       0.225087311086
 31      -0.218030211717
 Sym=     1a
 Ene= 5.14951019319191E+00
 Spin= Alpha
 Occup= 0.000000
  1      -0.000000000001
  2       0.000000000037
  3       0.000000000922
  4      -0.000000001725
  5       0.000000000428
  6      -0.000208627571
  7       0.000907990342
  8      -0.001081991200
  9       0.001980545244
 10      -0.008619181990
 11       0.010271529540
 12      -0.000793667149
 13       0.003453926251
 14      -0.004116081674
 15      -0.000000013310
 16      -0.000000019142
 17      -0.000000013138
 18      -0.000000018430
 19       0.000000011938
 20       0.000000011596
 21       0.000000016659
 22       0.000000011568
 23       0.000000016097
 24      -0.000000010424
 25      -0.048710994941
 26       0.167450082837
 27      -0.728709248230
 28      -0.562041163241
 29      -0.272708568953
 30       0.137667092514
 31      -0.171069793474
 Sym=     1a
 Ene= 6.10273160487806E+00
 Spin= Alpha
 Occup= 0.000000
  1      -0.000000001130
  2      -0.000000003769
  3      -0.000000020358
  4       0.000000020380
  5      -0.000000007758
  6       0.000000000728
  7      -0.000000014472
  8      -0.000000012124
  9      -0.000000000076
 10       0.000000015699
 11       0.000000013183
 12       0.000000000221
 13      -0.000000000912
 14      -0.000000000732
 15       0.169097646699
 16       0.629409889476
 17       0.377338964562
 18      -0.678697009506
 19       0.571692913644
 20      -0.086463894192
 21      -0.321833164705
 22      -0.192942937476
 23       0.347034906250
 24      -0.292321010510
 25       0.000000014353
 26      -0.000000017716
 27      -0.000000002266
 28       0.000000001101
 29      -0.000000027744
 30      -0.000000032111
 31       0.000000003332
 Sym=     1a
 Ene= 6.10273184843486E+00
 Spin= Alpha
 Occup= 0.000000
  1      -0.000000003680
  2      -0.000000012076
  3      -0.000000063519
  4       0.000000062185
  5      -0.000000022599
  6      -0.000000017737
  7      -0.000000001734
  8       0.000000002451
  9       0.000000020303
 10       0.000000001832
 11      -0.000000002326
 12      -0.000000000825
 13       0.000000000054
 14       0.000000000342
 15      -0.394361850737
 16       0.410122087698
 17      -0.448441578564
 18       0.605793496726
 19       0.680287387273
 20       0.201647162596
 21      -0.209705775253
 22       0.229299486799
 23      -0.309757501218
 24      -0.347848097312
 25       0.000000009112
 26       0.000000011770
 27       0.000000017635
 28      -0.000000025748
 29      -0.000000006233
 30       0.000000004310
 31       0.000000032884
 Sym=     1a
 Ene= 6.16198913369986E+00
 Spin= Alpha
 Occup= 0.000000
  1      -0.000000019487
  2      -0.000000048976
  3      -0.000000276460
  4       0.000000271553
  5      -0.000000083374
  6      -0.000000000941
  7       0.000000001955
  8      -0.000000000983
  9      -0.000000002045
 10       0.000000000574
 11       0.000000005282
 12      -0.000000000716
 13       0.000000000659
 14       0.000000000939
 15       0.911552374685
 16      -0.383152871115
 17       0.074234943555
 18       0.339388493964
 19       0.506126728400
 20      -0.464938787477
 21       0.195427754178
 22      -0.037863657504
 23      -0.173105660325
 24      -0.258150767940
 25      -0.000000023204
 26      -0.000000011893
 27      -0.000000015574
 28       0.000000005520
 29      -0.000000002552
 30       0.000000000005
 31       0.000000021540
 Sym=     1a
 Ene= 6.16198968210010E+00
 Spin= Alpha
 Occup= 0.000000
  1      -0.000000019202
  2      -0.000000048240
  3      -0.000000290801
  4       0.000000307889
  5      -0.000000083925
  6      -0.000000001102
  7       0.000000012353
  8      -0.000000013202
  9       0.000000006729
 10      -0.000000010429
 11       0.000000016414
 12       0.000000001245
 13       0.000000001122
 14       0.000000000037
 15       0.403213823535
 16       0.770452368744
 17       0.248839809544
 18       0.512613676227
 19      -0.523183738622
 20      -0.205659865116
 21      -0.392970490868
 22      -0.126921148361
 23      -0.261459441178
 24       0.266850709206
 25       0.000000009669
 26      -0.000000022516
 27      -0.000000018519
 28      -0.000000021424
 29      -0.000000011356
 30       0.000000025273
 31      -0.000000005129
 Sym=     1a
 Ene= 6.18436369103581E+00
 Spin= Alpha
 Occup= 0.000000
  1       0.002347909542
  2       0.005745657354
  3       0.031633703603
  4      -0.029837196167
  5       0.009517143691
  6       0.000000007469
  7       0.000000005767
  8       0.000000004224
  9      -0.000000007639
 10      -0.000000010171
 11      -0.000000000004
 12       0.000000000643
 13      -0.000000000586
 14       0.000000001485
 15       0.420645331323
 16       0.223221357623
 17      -0.971356237094
 18      -0.386005929513
 19      -0.187300517919
 20      -0.214340971271
 21      -0.113743048526
 22       0.494957211625
 23       0.196690373161
 24       0.095439491721
 25      -0.000000016143
 26      -0.000000018984
 27       0.000000010339
 28      -0.000000016130
 29       0.000000022446
 30      -0.000000007681
 31      -0.000000013169
 Sym=     1a
 Ene= 4.34222149898507E+01
 Spin= Alpha
 Occup= 0.000000
  1      -1.386297577884
  2       1.664620567058
  3       1.313417628348
  4      -1.093360850696
  5       0.387244364199
  6       0.000000000269
  7       0.000000000193
  8       0.000000000206
  9      -0.000000000333
 10      -0.000000000320
 11      -0.000000000269
 12       0.000000000150
 13       0.000000000210
 14       0.000000000174
 15       0.000124110826
 16       0.000065861822
 17      -0.000286605170
 18      -0.000113895340
 19      -0.000055264053
 20      -0.000058726961
 21      -0.000031164599
 22       0.000135615870
 23       0.000053892982
 24       0.000026150112
 25      -0.000000000004
 26      -0.000000000003
 27      -0.000000000001
 28      -0.000000000003
 29       0.000000000005
 30      -0.000000000002
 31      -0.000000000004
 Sym=     1a
 Ene= -1.94287557241188E+01
 Spin=Beta
 Occup= 1.000000
  1       0.435105753590
  2       0.641759624877
  3      -0.025063764049
  4       0.009883945349
  5      -0.002889956424
  6       0.000000003964
  7       0.000000001313
  8       0.000000003695
  9      -0.000000002234
 10       0.000000000171
 11      -0.000000002884
 12       0.000000000761
 13       0.000000000408
 14       0.000000000530
 15      -0.000224144022
 16      -0.000118775189
 17       0.000517610480
 18       0.000205782479
 19       0.000099950841
 20       0.000014105619
 21       0.000007427769
 22      -0.000032571494
 23      -0.000012971553
 24      -0.000006328660
 25      -0.000000000090
 26      -0.000000000104
 27       0.000000000078
 28      -0.000000000018
 29       0.000000000125
 30      -0.000000000066
 31      -0.000000000055
 Sym=     1a
 Ene= -9.84823810665169E-01
 Spin=Beta
 Occup= 1.000000
  1      -0.106470785417
  2      -0.255649297617
  3      -0.383021143721
  4      -0.499144894922
  5      -0.258115976132
  6       0.000000138590
  7       0.000000115844
  8       0.000000060153
  9       0.000000120113
 10       0.000000102516
 11       0.000000050080
 12       0.000000028317
 13       0.000000029212
 14       0.000000007461
 15      -0.002049191565
 16      -0.001087445291
 17       0.004732773427
 18       0.001880869202
 19       0.000912292252
 20      -0.002196094570
 21      -0.001165783354
 22       0.005071329743
 23       0.002015134831
 24       0.000977565037
 25      -0.000000001882
 26      -0.000000002724
 27       0.000000001387
 28      -0.000000003369
 29       0.000000002902
 30      -0.000000000711
 31      -0.000000001477
 Sym=     1a
 Ene= -4.41500379766872E-01
 Spin=Beta
 Occup= 1.000000
  1      -0.000000003077
  2      -0.000000007874
  3      -0.000000018304
  4      -0.000000009238
  5       0.000000002167
  6       0.071871946116
  7      -0.312764646953
  8       0.372735873405
  9       0.058919609137
 10      -0.256393854508
 11       0.305558522371
 12       0.046709433364
 13      -0.203258000835
 14       0.242234306501
 15      -0.000000010322
 16      -0.000000010170
 17       0.000000003961
 18      -0.000000004386
 19       0.000000006502
 20      -0.000000011923
 21      -0.000000010245
 22       0.000000004005
 23      -0.000000003926
 24       0.000000007147
 25      -0.000023931870
 26       0.000082576807
 27      -0.000358404869
 28      -0.000276527571
 29      -0.000134163389
 30       0.000067578247
 31      -0.000083965772
 Sym=     1a
 Ene= -7.18593437638110E-02
 Spin=Beta
 Occup= 0.000000
  1      -0.000000002524