[Molden Format]
[Title]
 Molden file created by orca_2mkl for BaseName=p

[Atoms] AU
P    1  15          0.0000000000         0.0000000000         0.0000000000 
[GTO]
  1 0
s   7 1.0 
    59261.2805920000         2.5181167850
     8409.8786697000         3.0826377251
     1859.2834412000         4.5126986229
      517.6286921000         6.5023895538
      166.8870592600         7.9808195723
       58.9039762600         6.7974658407
       21.7817244540         2.4615670234
s   3 1.0 
       99.8093911020        -1.9770778221
       30.8208125060        -3.5247247400
        5.5021472462         3.0326990719
s   2 1.0 
        2.6804663694        -1.0077148126
        1.2934001698        -0.2995435504
s   1 1.0 
        0.3184309963         0.3021145168
s   1 1.0 
        0.1148532914         0.1406104753
p   5 1.0 
      502.3453045800        12.8517085817
      116.8708696800        15.7746634345
       37.1722062090        16.7906594692
       13.7688100030        13.5917714614
        5.4511049171         7.2528175139
p   1 1.0 
        2.2030347771         3.8257516930
p   1 1.0 
        0.8367369804         1.1407127407
p   1 1.0 
        0.2923013818         0.3063576104
p   1 1.0 
        0.0979578529         0.0781158494
d   1 1.0 
        3.1200000000        20.8804869758
d   1 1.0 
        0.6480000000         1.3342166126
d   1 1.0 
        0.2180000000         0.1982754514
f   1 1.0 
        0.4520000000         0.9551279577

[5D]
[7F]
[9G]
[MO]
 Sym=     1a
 Ene= -7.72806983626884E+01
 Spin= Alpha
 Occup= 1.000000
  1       0.996358575008
  2       0.024808446621
  3       0.000879184655
  4      -0.001629866447
  5       0.000871551275
  6       0.000000001963
  7       0.000000000559
  8       0.000000000514
  9      -0.000000001425
 10      -0.000000001070
 11      -0.000000000635
 12       0.000000000999
 13       0.000000000483
 14       0.000000000335
 15      -0.000000000610
 16      -0.000000000141
 17      -0.000000000161
 18       0.000000000318
 19       0.000000000098
 20       0.000000000070
 21      -0.000000000193
 22      -0.000000000031
 23       0.000000000029
 24       0.000000000059
 25      -0.000000000252
 26       0.000000000006
 27       0.000000000006
 28      -0.000000000003
 29      -0.000000000036
 30       0.000000000033
 31       0.000000000002
 32      -0.000000000007
 33       0.000000000015
 34       0.000000000027
 35      -0.000000000025
 36       0.000000000014
 37      -0.000000000024
 38       0.000000000008
 39       0.000000000013
 40       0.000000000006
 41      -0.000000000001
 42       0.000000000006
 Sym=     1a
 Ene= -6.74623163042800E+00
 Spin= Alpha
 Occup= 1.000000
  1      -0.284345340235
  2       0.276473610289
  3      -0.770706394690
  4       0.033640601446
  5      -0.011242277913
  6       0.000000105463
  7      -0.000000032721
  8      -0.000000002810
  9       0.000000075647
 10      -0.000000009247
 11      -0.000000003186
 12      -0.000000003948
 13       0.000000005354
 14      -0.000000001630
 15       0.000000003614
 16      -0.000000002946
 17      -0.000000000571
 18      -0.000000000583
 19      -0.000000000442
 20       0.000000000883
 21      -0.000000042218
 22      -0.000000008217
 23       0.000000006382
 24       0.000000011864
 25      -0.000000035105
 26      -0.000000012156
 27      -0.000000001679
 28       0.000000001755
 29       0.000000005509
 30      -0.000000015999
 31       0.000000006537
 32       0.000000001181
 33      -0.000000001912
 34      -0.000000003259
 35       0.000000007104
 36      -0.000000000167
 37       0.000000002057
 38      -0.000000001415
 39       0.000000000125
 40      -0.000000000198
 41      -0.000000001384
 42      -0.000000002983
 Sym=     1a
 Ene= -4.86653717732112E+00
 Spin= Alpha
 Occup= 1.000000
  1       0.000000043772
  2      -0.000000043021
  3       0.000000115852
  4      -0.000000031596
  5       0.000000009769
  6       0.620432499143
  7      -0.277813640160
  8      -0.040875908036
  9       0.326664752897
 10      -0.146272045132
 11      -0.021521630703
 12       0.086883882859
 13      -0.038904370326
 14      -0.005724166473
 15      -0.005267441685
 16       0.002358628955
 17       0.000347035697
 18       0.001878404299
 19      -0.000841099615
 20      -0.000123754758
 21      -0.000000008525
 22      -0.000000000159
 23      -0.000000000183
 24       0.000000026235
 25       0.000000003890
 26       0.000000007548
 27      -0.000000001273
 28       0.000000000205
 29      -0.000000014749
 30       0.000000006267
 31      -0.000000002499
 32       0.000000000618
 33       0.000000000165
 34       0.000000005279
 35       0.000000001340
 36       0.000000003745
 37      -0.000000013699
 38       0.000000008624
 39      -0.000000000728
 40       0.000000004087
 41       0.000000007525
 42       0.000000016151
 Sym=     1a
 Ene= -4.86653711802721E+00
 Spin= Alpha
 Occup= 1.000000
  1       0.000000008700
  2      -0.000000017690
  3       0.000000020988
  4       0.000000007966
  5      -0.000000004571
  6       0.276850928844
  7       0.621758231987
  8      -0.023623121508
  9       0.145765132285
 10       0.327362735042
 11      -0.012437838722
 12       0.038769524334
 13       0.087069524503
 14      -0.003308122574
 15      -0.002350444314
 16      -0.005278692584
 17       0.000200557699
 18       0.000838190348
 19       0.001882424442
 20      -0.000071521052
 21      -0.000000010440
 22       0.000000000180
 23      -0.000000000447
 24       0.000000002067
 25       0.000000021525
 26      -0.000000004417
 27       0.000000000209
 28       0.000000000127
 29      -0.000000014258
 30       0.000000015798
 31       0.000000000058
 32      -0.000000000303
 33      -0.000000001227
 34       0.000000006539
 35      -0.000000004702
 36      -0.000000000844
 37      -0.000000000674
 38      -0.000000007217
 39      -0.000000001593
 40      -0.000000001392
 41      -0.000000007838
 42      -0.000000002763
 Sym=     1a
 Ene= -4.86653707539037E+00
 Spin= Alpha
 Occup= 1.000000
  1      -0.000000001232
  2      -0.000000001511
  3      -0.000000004624
  4       0.000000003956
  5      -0.000000001824
  6      -0.046955708205
  7      -0.004904436041
  8      -0.679381270135
  9      -0.024722708767
 10      -0.002582242247
 11      -0.357701894397
 12      -0.006575562272
 13      -0.000686807675
 14      -0.095138907635
 15       0.000398650241
 16       0.000041639756
 17       0.005767904306
 18      -0.000142162620
 19      -0.000014848603
 20      -0.002056887590
 21      -0.000000002351
 22      -0.000000022518
 23      -0.000000010730
 24      -0.000000002521
 25      -0.000000001375
 26       0.000000002041
 27      -0.000000001005
 28      -0.000000006954
 29       0.000000001929
 30      -0.000000001646
 31      -0.000000000060
 32       0.000000001161
 33       0.000000002745
 34      -0.000000001330
 35       0.000000000622
 36       0.000000007458
 37       0.000000001266
 38      -0.000000000602
 39      -0.000000001092
 40       0.000000006567
 41       0.000000000536
 42      -0.000000000239
 Sym=     1a
 Ene= -7.03833131657786E-01
 Spin= Alpha
 Occup= 1.000000
  1      -0.081120768887
  2       0.093344713000
  3      -0.454204501235
  4      -0.708929043680
  5      -0.469650263741
  6      -0.000000028628
  7       0.000000058150
  8      -0.000000030094
  9      -0.000000012800
 10       0.000000035390
 11      -0.000000016128
 12      -0.000000025010
 13      -0.000000042463
 14      -0.000000006221
 15       0.000000197531
 16      -0.000000235528
 17       0.000000169564
 18      -0.000000101385
 19       0.000000087252
 20       0.000000027267
 21      -0.000000302466
 22      -0.000000084242
 23       0.000000023211
 24       0.000000104272
 25       0.000000316296
 26      -0.000000124267
 27       0.000000084307
 28      -0.000000113687
 29       0.000000582696
 30       0.000000123594
 31       0.000000365881
 32       0.000000092805
 33      -0.000000278988
 34      -0.000000408710
 35       0.000000098261
 36      -0.000000089419
 37       0.000000435932
 38      -0.000000236597
 39      -0.000000064278
 40      -0.000000106788
 41      -0.000000479848
 42      -0.000000378788
 Sym=     1a
 Ene= -3.46183330063058E-01
 Spin= Alpha
 Occup= 1.000000
  1      -0.000000009591
  2       0.000000024957
  3      -0.000000053538
  4      -0.000000103913
  5      -0.000000080308
  6       0.137576695238
  7      -0.116348390843
  8      -0.015270766212
  9       0.085451014143
 10      -0.072265781560
 11      -0.009484910598
 12      -0.124672413972
 13       0.105435260678
 14       0.013838418028
 15      -0.426051014024
 16       0.360310648563
 17       0.047290893077
 18      -0.333015792673
 19       0.281630888776
 20       0.036964155735
 21      -0.000000180695
 22      -0.000000345370
 23       0.000000214767
 24       0.000000268230
 25      -0.000000448731
 26      -0.000002156947
 27       0.000000462259
 28      -0.000000195370
 29       0.000003632697
 30      -0.000000365392
 31       0.000000407528
 32      -0.000001345684
 33       0.000002192596
 34      -0.000001138152
 35       0.000000940904
 36       0.000000440248
 37      -0.000001273388
 38       0.000000984485
 39      -0.000000010343
 40       0.000000486034
 41       0.000001036406
 42       0.000001698601
 Sym=     1a
 Ene= -3.46183226981637E-01
 Spin= Alpha
 Occup= 1.000000
  1      -0.000000006795
  2       0.000000004517
  3      -0.000000039325
  4      -0.000000057553
  5      -0.000000035212
  6      -0.116637577977
  7      -0.138165272472
  8       0.001878925485
  9      -0.072445360768
 10      -0.085816531623
 11       0.001167027862
 12       0.105697287373
 13       0.125205741499
 14      -0.001702684696
 15       0.361206158069
 16       0.427873645631
 17      -0.005818708360
 18       0.282330948547
 19       0.334440480974
 20      -0.004548088728
 21      -0.000000871572
 22       0.000000099800
 23       0.000000020208
 24      -0.000000149659
 25       0.000001743279
 26       0.000001628952
 27      -0.000000014312
 28       0.000000237271
 29      -0.000002925401
 30       0.000000045251
 31      -0.000001330698
 32      -0.000000107522
 33       0.000001297418
 34       0.000001760255
 35       0.000000717722
 36       0.000000015765
 37       0.000000384818
 38       0.000000345173
 39       0.000000094879
 40       0.000000054285
 41      -0.000000050785
 42       0.000000190204
 Sym=     1a
 Ene= -3.46183201829278E-01
 Spin= Alpha
 Occup= 1.000000
  1       0.000000016891
  2      -0.000000028045
  3       0.000000095404
  4       0.000000202360
  5       0.000000030365
  6      -0.012877126079
  7       0.008420592342
  8      -0.180168745651
  9      -0.007998174764
 10       0.005230153403
 11      -0.111905500231
 12       0.011669283794
 13      -0.007630758051
 14       0.163269388845
 15       0.039878200616
 16      -0.026077103207
 17       0.557951000246
 18       0.031170151216
 19      -0.020382731569
 20       0.436113338202
 21      -0.000000119348
 22       0.000000031554
 23       0.000000041127
 24       0.000000064872
 25      -0.000000091744
 26       0.000000124342
 27      -0.000000268933
 28      -0.000000036298
 29      -0.000000557801
 30       0.000000331610
 31      -0.000001310402
 32       0.000001091452
 33      -0.000002352968
 34      -0.000000627658
 35      -0.000001074741
 36       0.000000222370
 37       0.000000006834
 38       0.000000010928
 39      -0.000000001953
 40       0.000000231161
 41       0.000000024086
 42      -0.000000038601
 Sym=     1a
 Ene= 3.30365857812098E-01
 Spin= Alpha
 Occup= 0.000000
  1      -0.000001437777
  2       0.000001082794
  3      -0.000009526464
  4      -0.000035866832
  5       0.000031668334
  6       0.000003199878
  7      -0.000002423659
  8       0.000026176663
  9       0.000001043156
 10      -0.000000776662
 11       0.000008696812
 12       0.000000192797
 13      -0.000000208980
 14       0.000000999398
 15      -0.000024976489
 16       0.000019155183
 17      -0.000203171845
 18       0.000027083097
 19      -0.000020938144
 20       0.000219964210
 21      -0.037968443515
 22      -0.006965613264
 23       0.007238138418
 24      -0.029880950512
 25      -0.025657398153
 26      -0.106786221191
 27      -0.019591019452
 28       0.020357335173
 29      -0.084039999291
 30      -0.072161751826
 31      -0.606078938586
 32      -0.111191217522
 33       0.115540867288
 34      -0.476981764177
 35      -0.409563858517
 36       0.000000033088
 37      -0.000000021601
 38      -0.000000018704
 39      -0.000000000459
 40       0.000000011606
 41       0.000000023562
 42       0.000000054056
 Sym=     1a
 Ene= 3.30365950885862E-01
 Spin= Alpha
 Occup= 0.000000
  1      -0.000000134867
  2       0.000000101096
  3      -0.000000894033
  4      -0.000003378177
  5       0.000002998498
  6       0.000009569199
  7       0.000002454167
  8       0.000002537417
  9       0.000003170860
 10       0.000000806885
 11       0.000000848820
 12       0.000000401788
 13       0.000000123548
 14       0.000000091933
 15      -0.000074401218
 16      -0.000019092554
 17      -0.000019703102
 18       0.000080650857
 19       0.000020644987
 20       0.000021258703
 21      -0.005711461756
 22       0.052254768596
 23       0.017941211456
 24       0.001557126891
 25      -0.002486794189
 26      -0.016063297812
 27       0.146966747254
 28       0.050459714149
 29       0.004379079146
 30      -0.006993646160
 31      -0.091169749141
 32       0.834130778252
 33       0.286390949438
 34       0.024854625204
 35      -0.039694197861
 36      -0.000000046777
 37      -0.000000061688
 38      -0.000000021146
 39       0.000000050683
 40       0.000000045865
 41       0.000000000967
 42       0.000000014877
 Sym=     1a
 Ene= 3.30366025058706E-01
 Spin= Alpha
 Occup= 0.000000
  1      -0.000005082397
  2       0.000003798417
  3      -0.000033708354
  4      -0.000127737765
  5       0.000113831440
  6      -0.000012227644
  7       0.000045857855
  8      -0.000055032780
  9      -0.000004073665
 10       0.000015201749
 11      -0.000018228972
 12      -0.000000430293
 13       0.000001879024
 14      -0.000002308767
 15       0.000094945170
 16      -0.000356234571
 17       0.000427710613
 18      -0.000103021769
 19       0.000385779708
 20      -0.000463377226
 21       0.016175517791
 22      -0.014706942247
 23       0.049722918848
 24      -0.010309807645
 25       0.006090129452
 26       0.045493435832
 27      -0.041363156202
 28       0.139845720855
 29      -0.028995910223
 30       0.017128133791
 31       0.258205882361
 32      -0.234762447171
 33       0.793713122103
 34      -0.164573363793
 35       0.097213219743
 36      -0.000000030804
 37       0.000000029805
 38      -0.000000035587
 39      -0.000000025394
 40       0.000000052966
 41       0.000000006360
 42       0.000000006314
 Sym=     1a
 Ene= 3.30366318616984E-01
 Spin= Alpha
 Occup= 0.000000
  1       0.000000555915
  2      -0.000000423144
  3       0.000003680153
  4       0.000013759470
  5      -0.000012019455
  6       0.000028677021
  7      -0.000025709115
  8       0.000015556983
  9       0.000009480426
 10      -0.000008500554
 11       0.000005143080
 12       0.000001281449
 13      -0.000001117727
 14       0.000000687557
 15      -0.000222784538
 16       0.000199885426
 17      -0.000120964116
 18       0.000240749996
 19      -0.000216638059
 20       0.000131032916
 21       0.014023731828
 22       0.008932537061
 23      -0.014229848776
 24      -0.044688278535
 25       0.024852313063
 26       0.039441088005
 27       0.025123485893
 28      -0.040021846970
 29      -0.125685959493
 30       0.069898718038
 31       0.223856581990
 32       0.142591193165
 33      -0.227148476558
 34      -0.713353690983
 35       0.396719317957
 36      -0.000000016630
 37       0.000000009693
 38      -0.000000012139
 39       0.000000022151
 40      -0.000000016830
 41       0.000000085708
 42       0.000000003310
 Sym=     1a
 Ene= 3.30366637319937E-01
 Spin= Alpha
 Occup= 0.000000
  1      -0.000000985637
  2       0.000000735904
  3      -0.000006541313
  4      -0.000024851154
  5       0.000022211963
  6      -0.000015787284
  7       0.000038988755
  8      -0.000007124500
  9      -0.000005179011
 10       0.000012944599
 11      -0.000002353387
 12      -0.000000813127
 13       0.000001569005
 14      -0.000000323105
 15       0.000122894105
 16      -0.000302874557
 17       0.000055436873
 18      -0.000133115727
 19       0.000327869632
 20      -0.000060098797
 21      -0.034075096204
 22      -0.004302075523
 23       0.006674776013
 24       0.009748005227
 25       0.042122969033
 26      -0.095838034380
 27      -0.012099438423
 28       0.018772842186
 29       0.027415866738
 30       0.118474422723
 31      -0.543942749168
 32      -0.068672452871
 33       0.106547141901
 34       0.155605778148
 35       0.672416806736
 36       0.000000050123
 37      -0.000000070705
 38      -0.000000039212
 39      -0.000000009319
 40      -0.000000004231
 41       0.000000031826
 42      -0.000000080404
 Sym=     1a
 Ene= 3.41836874086040E-01
 Spin= Alpha
 Occup= 0.000000
  1      -0.000001727823
  2       0.000001316401
  3      -0.000011457941
  4      -0.000043470288
  5       0.000038683801
  6       0.129722183448
  7      -0.093245973354
  8      -0.011847668756
  9       0.044671655606
 10      -0.032110556721
 11      -0.004079912198
 12      -0.000759872417
 13       0.000546201950
 14       0.000069404334
 15      -1.001034515362
 16       0.719556471309
 17       0.091425565937
 18       1.095047455659
 19      -0.787134200932
 20      -0.100011872336
 21      -0.000006299464
 22      -0.000007077268
 23       0.000013777249
 24       0.000009773588
 25       0.000006979842
 26      -0.000009927974
 27      -0.000024315872
 28       0.000041386271
 29       0.000014592918
 30       0.000016829107
 31      -0.000112677094
 32      -0.000124354129
 33       0.000222375707
 34       0.000181552681
 35       0.000079355602
 36       0.000000004685
 37      -0.000000002054
 38      -0.000000000817
 39       0.000000003539
 40      -0.000000000971
 41       0.000000008383
 42       0.000000004514
 Sym=     1a
 Ene= 3.41836978461768E-01
 Spin= Alpha
 Occup= 0.000000
  1       0.000001866749
  2      -0.000001410277
  3       0.000012388956
  4       0.000047166465
  5      -0.000042195680
  6      -0.093572317363
  7      -0.130022224699
  8      -0.001211591542
  9      -0.032222934589
 10      -0.044774964116
 11      -0.000417229831
 12       0.000548110007
 13       0.000761613291
 14       0.000007102128
 15       0.722074834911
 16       1.003349900770
 17       0.009349544795
 18      -0.789889011373
 19      -1.097580255692
 20      -0.010227613364
 21      -0.000000059646
 22      -0.000001323865
 23       0.000011469530
 24       0.000001214110
 25       0.000001518224
 26      -0.000012691832
 27      -0.000003448078
 28       0.000031725784
 29       0.000012530983
 30       0.000017548453
 31      -0.000034333107
 32      -0.000016643581
 33       0.000180679220
 34       0.000002323702
 35       0.000100292189
 36       0.000000011744
 37      -0.000000003073
 38      -0.000000007787
 39       0.000000014215
 40      -0.000000009482
 41       0.000000017943
 42       0.000000007330
 Sym=     1a
 Ene= 3.41837006953989E-01
 Spin= Alpha
 Occup= 0.000000
  1      -0.000000509013
  2       0.000000379966
  3      -0.000003380478
  4      -0.000012880323
  5       0.000011552633
  6      -0.008910806509
  7       0.007901406128
  8      -0.159753521647
  9      -0.003068559928
 10       0.002720956915
 11      -0.055013344347
 12       0.000052194898
 13      -0.000046275804
 14       0.000935763037
 15       0.068762528611
 16      -0.060973245969
 17       1.232779095727
 18      -0.075220409781
 19       0.066699594239
 20      -1.348556459065
 21      -0.000008392108
 22       0.000006504243
 23      -0.000019006106
 24      -0.000007224982
 25      -0.000006058526
 26      -0.000025323713
 27       0.000020014327
 28      -0.000053137672
 29      -0.000018059554
 30      -0.000019367946
 31      -0.000133842280
 32       0.000100590340
 33      -0.000293142503
 34      -0.000110734377
 35      -0.000097738878
 36      -0.000000002339
 37       0.000000002191
 38       0.000000001771
 39      -0.000000002369
 40       0.000000006033
 41      -0.000000006417
 42      -0.000000004187
 Sym=     1a
 Ene= 3.45666183869046E-01
 Spin= Alpha
 Occup= 0.000000
  1       0.082285811561
  2      -0.062378519668
  3       0.546043781594
  4       2.077492653259
  5      -1.856352145150
  6       0.000004766345
  7       0.000001056263
  8      -0.000001208493
  9       0.000001573136
 10       0.000000377038
 11      -0.000000416567
 12       0.000000179932
 13      -0.000000045140
 14       0.000000007465
 15      -0.000037042980
 16      -0.000008146036
 17       0.000009355389
 18       0.000040392442
 19       0.000008935259
 20      -0.000010272599
 21      -0.000001492161
 22      -0.000001402826
 23       0.000003540508
 24      -0.000000155745
 25       0.000001597211
 26      -0.000003332610
 27      -0.000002823576
 28       0.000009453482
 29       0.000002410328
 30       0.000000628357
 31      -0.000000325671
 32      -0.000016741140
 33       0.000053924158
 34      -0.000015074614
 35       0.000004174020
 36       0.000000037159
 37      -0.000000005540
 38       0.000000025031
 39       0.000000022836
 40       0.000000023312
 41       0.000000024397
 42       0.000000004164
 Sym=     1a
 Ene= 1.21541951420082E+00
 Spin= Alpha
 Occup= 0.000000
  1      -0.000000303142
  2       0.000000509184
  3      -0.000002044193
  4      -0.000009529206
  5       0.000009250178
  6       0.000005319676
  7      -0.000000327389
  8       0.000000051934
  9       0.000008076157
 10      -0.000000515406
 11       0.000000073915
 12      -0.000025616810
 13       0.000001682486
 14      -0.000000224161
 15       0.000004489124
 16      -0.000000512791
 17       0.000000019187
 18       0.000015952828
 19      -0.000000767918
 20       0.000000116308
 21      -0.064333512983
 22      -0.007084176949
 23      -0.004369456083
 24       0.108935036687
 25       0.014794020810
 26      -0.590987905019
 27      -0.065076156765
 28      -0.040140099304
 29       1.000714675706
 30       0.135899931392
 31       0.441977339243
 32       0.048668028964
 33       0.030019173662
 34      -0.748396300968
 35      -0.101634465159
 36       0.000000036396
 37      -0.000000026178
 38      -0.000000045099
 39       0.000000003748
 40      -0.000000058162
 41       0.000000126297
 42      -0.000000258384
 Sym=     1a
 Ene= 1.21542069234843E+00
 Spin= Alpha
 Occup= 0.000000
  1      -0.000000010891
  2       0.000000022778
  3      -0.000000057402
  4      -0.000000357637
  5       0.000000477390
  6      -0.000001844313
  7      -0.000000272576
  8      -0.000000304305
  9      -0.000002774957
 10      -0.000000507730
 11      -0.000000471014
 12       0.000008828224
 13       0.000001727345
 14       0.000001501547
 15      -0.000001552924
 16      -0.000001137610
 17      -0.000000318812
 18      -0.000005624541
 19      -0.000000169568
 20      -0.000000879520
 21      -0.033447495670
 22      -0.002281009196
 23      -0.004257949555
 24      -0.036054995964
 25       0.117694729195
 26      -0.307254147572
 27      -0.020955977021
 28      -0.039114240709
 29      -0.331212327449
 30       1.081172329117
 31       0.229783963815
 32       0.015672139617
 33       0.029252067536
 34       0.247701249388
 35      -0.808568421833
 36       0.000000028806
 37      -0.000000420585
 38      -0.000000249069
 39      -0.000000029156
 40      -0.000000001697
 41       0.000000377198
 42      -0.000000309220
 Sym=     1a
 Ene= 1.21542188202866E+00
 Spin= Alpha
 Occup= 0.000000
  1       0.000000012654
  2      -0.000000021545
  3       0.000000082420
  4       0.000000383894
  5      -0.000000379227
  6      -0.000000600774
  7       0.000000446692
  8      -0.000000449590
  9      -0.000000912188
 10       0.000000631433
 11      -0.000000568006
 12       0.000002904293
 13      -0.000001995883
 14       0.000001704202
 15      -0.000000508675
 16       0.000000120490
 17       0.000000555014
 18      -0.000001877391
 19       0.000001566087
 20      -0.000002123600
 21       0.014590061799
 22      -0.124381178292
 23       0.024498650371
 24       0.001108631869
 25       0.002961142278
 26       0.134030186253
 27      -1.142608606593
 28       0.225053406749
 29       0.010182706788
 30       0.027204407605
 31      -0.100236157867
 32       0.854514433593
 33      -0.168309135549
 34      -0.007615336236
 35      -0.020345119379
 36       0.000000063376
 37       0.000000137047
 38      -0.000000026106
 39       0.000000009305
 40       0.000000021226
 41      -0.000000059291
 42      -0.000000007220
 Sym=     1a
 Ene= 1.21542233519496E+00
 Spin= Alpha
 Occup= 0.000000
  1       0.000000040209
  2      -0.000000061751
  3       0.000000290540
  4       0.000001242478
  5      -0.000001046328
  6      -0.000000229653
  7       0.000000159822
  8      -0.000000095581
  9      -0.000000350418
 10       0.000000269778
 11      -0.000000071136
 12       0.000001101144
 13      -0.000000815537
 14       0.000000206035
 15      -0.000000184128
 16       0.000000166050
 17       0.000000325297
 18      -0.000000691497
 19       0.000000464864
 20      -0.000000514662
 21       0.097787474599
 22       0.003119816285
 23      -0.049688051097
 24       0.050327887231
 25       0.041470345397
 26       0.898309746456
 27       0.028659082545
 28      -0.456451753015
 29       0.462330173026
 30       0.380962214593
 31      -0.671812560756
 32      -0.021433099718
 33       0.341363358978
 34      -0.345759561832
 35      -0.284907492340
 36      -0.000000024971
 37       0.000000328090
 38      -0.000000012421
 39      -0.000000068446
 40      -0.000000215750
 41      -0.000000398050
 42       0.000000033478
 Sym=     1a
 Ene= 1.21542237358126E+00
 Spin= Alpha
 Occup= 0.000000
  1       0.000000002015
  2      -0.000000004227
  3       0.000000006593
  4       0.000000047373
  5      -0.000000082073
  6       0.000000248358
  7      -0.000000178226
  8       0.000000308675
  9       0.000000340301
 10      -0.000000196417
 11       0.000000382041
 12      -0.000001067406
 13       0.000000599928
 14      -0.000001182850
 15       0.000000010732
 16       0.000000337793
 17      -0.000000205008
 18       0.000000883649
 19      -0.000001041248
 20       0.000001322352
 21      -0.035510529935
 22      -0.027530679792
 23      -0.114836399314
 24      -0.024347848492
 25      -0.022238565278
 26      -0.326212680147
 27      -0.252906005962
 28      -1.054927938232
 29      -0.223667683072
 30      -0.204291483250
 31       0.243962337094
 32       0.189138966668
 33       0.788941535147
 34       0.167272810473
 35       0.152782055918
 36       0.000000081536
 37      -0.000000116601
 38       0.000000063374
 39      -0.000000103040
 40      -0.000000542727
 41       0.000000114766
 42       0.000000005937
 Sym=     1a
 Ene= 1.35969962932462E+00
 Spin= Alpha
 Occup= 0.000000
  1       0.000000010912
  2      -0.000000014509
  3       0.000000062277
  4       0.000000130716
  5       0.000000007088
  6       0.000000060154
  7      -0.000000057757
  8      -0.000000055931
  9       0.000000037614
 10      -0.000000029500
 11      -0.000000035305
 12      -0.000000042551
 13       0.000000009384
 14       0.000000044402
 15      -0.000000205454
 16       0.000000237089
 17       0.000000167220
 18      -0.000000137201
 19       0.000000152128
 20       0.000000115492
 21      -0.000000004686
 22      -0.000000009812
 23       0.000000084456
 24       0.000000007125
 25      -0.000000012361
 26       0.000000022048
 27       0.000000123983
 28       0.000000680532
 29      -0.000000044449
 30       0.000000026380
 31      -0.000000016717
 32      -0.000000065035
 33      -0.000000443887
 34       0.000000028461
 35      -0.000000028872
 36      -0.047137884733
 37      -0.004378925256
 38       0.005118079048
 39       0.000109327886
 40      -0.998829871502
 41      -0.005411669465
 42      -0.006499213656
 Sym=     1a
 Ene= 1.35970060234834E+00
 Spin= Alpha
 Occup= 0.000000
  1      -0.000000008928
  2       0.000000005377
  3      -0.000000053038
  4      -0.000000099087
  5      -0.000000008793
  6       0.000000032559
  7       0.000000024446
  8       0.000000001318
  9       0.000000012445
 10       0.000000020068
 11      -0.000000000542
 12       0.000000017044
 13      -0.000000043176
 14       0.000000005314
 15      -0.000000157375
 16      -0.000000035057
 17      -0.000000010942
 18      -0.000000067639
 19      -0.000000031677
 20      -0.000000006861
 21       0.000000001802
 22       0.000000001647
 23       0.000000002250
 24      -0.000000004291
 25       0.000000008518
 26       0.000000214300
 27       0.000000063168
 28      -0.000000028040
 29      -0.000000017412
 30      -0.000000052695
 31      -0.000000193416
 32      -0.000000017395
 33       0.000000036284
 34       0.000000075920
 35       0.000000005630
 36      -0.023545550688
 37       0.588811008679
 38       0.098644707538
 39       0.001024040054
 40      -0.004290403717
 41       0.788562482190
 42      -0.145486013886
 Sym=     1a
 Ene= 1.35970065078495E+00
 Spin= Alpha
 Occup= 0.000000
  1      -0.000000014145
  2       0.000000014739
  3      -0.000000077570
  4      -0.000000104327
  5      -0.000000102185
  6      -0.000000102633
  7       0.000000083727
  8       0.000000002175
  9      -0.000000059690
 10       0.000000051905
 11       0.000000000393
 12       0.000000053779
 13      -0.000000053247
 14       0.000000002486
 15       0.000000364884
 16      -0.000000307714
 17      -0.000000009553