[Molden Format]
[Title]
 Molden file created by orca_2mkl for BaseName=s

[Atoms] AU
S    1  16          0.0000000000         0.0000000000         0.0000000000 
[GTO]
  1 0
s   7 1.0 
    71122.0852280000         2.8875326134
     9998.2478776000         3.4468882542
     2195.6085519000         4.9730899638
      608.1327674100         7.1438833058
      195.2461663100         8.8147702964
       68.7216613910         7.6013236494
       25.4042713160         2.8306841941
s   3 1.0 
      114.2396645900        -2.4760639593
       35.2110836500        -4.3933780445
        6.5872441540         3.5353764298
s   2 1.0 
        3.2718710215        -1.1667763586
        1.5630827972        -0.3478984805
s   1 1.0 
        0.4080827474         0.3638909611
s   1 1.0 
        0.1463829286         0.1686661438
p   5 1.0 
      604.8788900300        15.4631128681
      140.0897861900        18.9813676604
       44.4994657800        20.4367268650
       16.4748871580        16.8562215184
        6.5229645048         9.1671877965
p   1 1.0 
        2.6400848985         4.7969197614
p   1 1.0 
        0.9891095614         1.4060332401
p   1 1.0 
        0.3509456194         0.3850258339
p   1 1.0 
        0.1157715793         0.0962592636
d   1 1.0 
        3.7560000000        28.8894886524
d   1 1.0 
        0.8120000000         1.9801274062
d   1 1.0 
        0.2730000000         0.2939373103
f   1 1.0 
        0.5570000000         1.5281791442

[5D]
[7F]
[9G]
[MO]
 Sym=     1a
 Ene= -8.90685484989632E+01
 Spin= Alpha
 Occup= 1.000000
  1      -0.996362182185
  2      -0.023956653583
  3       0.002383674509
  4       0.003361848433
  5      -0.001673921003
  6       0.000000000114
  7      -0.000000000072
  8       0.000000000061
  9      -0.000000000224
 10       0.000000000127
 11      -0.000000000139
 12       0.000000000122
 13      -0.000000000038
 14       0.000000000048
 15      -0.000000000030
 16      -0.000000000005
 17       0.000000000036
 18       0.000000000050
 19       0.000000000022
 20       0.000000000005
 21      -0.000004004228
 22      -0.000000213086
 23      -0.000000689731
 24      -0.000005757774
 25       0.000003933014
 26       0.000001842491
 27       0.000000098055
 28       0.000000317355
 29       0.000002649329
 30      -0.000001809695
 31      -0.000000709211
 32      -0.000000037755
 33      -0.000000122135
 34      -0.000001019733
 35       0.000000696535
 36       0.000000000010
 37       0.000000000003
 38       0.000000000001
 39       0.000000000005
 40       0.000000000005
 41      -0.000000000003
 42      -0.000000000007
 Sym=     1a
 Ene= -8.15272995590290E+00
 Spin= Alpha
 Occup= 1.000000
  1       0.289418363040
  2      -0.251977379355
  3       0.792602109394
  4      -0.036892455928
  5       0.012012908157
  6      -0.000000005475
  7       0.000000003527
  8      -0.000000004824
  9      -0.000000001306
 10       0.000000000668
 11      -0.000000001258
 12      -0.000000000044
 13       0.000000000343
 14      -0.000000000362
 15      -0.000000000529
 16       0.000000000133
 17      -0.000000000476
 18      -0.000000000278
 19       0.000000000055
 20      -0.000000000052
 21      -0.000511990079
 22      -0.000027245765
 23      -0.000088190707
 24      -0.000736206455
 25       0.000502886337
 26      -0.000378098163
 27      -0.000020120825
 28      -0.000065127806
 29      -0.000543680168
 30       0.000371375461
 31       0.000136992155
 32       0.000007290255
 33       0.000023596995
 34       0.000196985554
 35      -0.000134556225
 36      -0.000000000073
 37       0.000000000001
 38      -0.000000000015
 39      -0.000000000018
 40       0.000000000023
 41      -0.000000000035
 42      -0.000000000002
 Sym=     1a
 Ene= -6.07608520389429E+00
 Spin= Alpha
 Occup= 1.000000
  1      -0.000000001076
  2       0.000000000694
  3      -0.000000003109
  4       0.000000000273
  5      -0.000000000326
  6       0.164145500684
  7      -0.086249633798
  8      -0.655946298756
  9       0.087197372976
 10      -0.045817530448
 11      -0.348451792906
 12       0.021172008809
 13      -0.011124752266
 14      -0.084606041151
 15      -0.001426369100
 16       0.000749480451
 17       0.005699954121
 18       0.000467128346
 19      -0.000245450879
 20      -0.001866706186
 21       0.000000002540
 22       0.000000002045
 23      -0.000000001365
 24      -0.000000000455
 25       0.000000000671
 26       0.000000001121
 27       0.000000001159
 28      -0.000000000499
 29      -0.000000000311
 30       0.000000000264
 31      -0.000000000328
 32      -0.000000000334
 33       0.000000000119
 34       0.000000000056
 35      -0.000000000107
 36      -0.000175628299
 37       0.000006867667
 38      -0.000045273592
 39      -0.000184515065
 40       0.000134028312
 41      -0.000037184004
 42       0.000070097677
 Sym=     1a
 Ene= -6.07608519650912E+00
 Spin= Alpha
 Occup= 1.000000
  1      -0.000000002521
  2       0.000000001536
  3      -0.000000007095
  4       0.000000001925
  5      -0.000000001837
  6      -0.630340005361
  7       0.184874982402
  8      -0.182046724761
  9      -0.334849217995
 10       0.098209288239
 11      -0.096706861154
 12      -0.081303259745
 13       0.023845762248
 14      -0.023480965942
 15       0.005477442988
 16      -0.001606500947
 17       0.001581925302
 18      -0.001793833948
 19       0.000526120640
 20      -0.000518072656
 21      -0.000000001069
 22       0.000000002396
 23      -0.000000000956
 24       0.000000001876
 25      -0.000000002215
 26      -0.000000000669
 27       0.000000001153
 28      -0.000000000517
 29       0.000000001061
 30      -0.000000001130
 31       0.000000000300
 32      -0.000000000335
 33       0.000000000212
 34      -0.000000000305
 35       0.000000000450
 36      -0.000048742680
 37      -0.000071971366
 38       0.000010262326
 39      -0.000065642492
 40       0.000016066441
 41       0.000178112111
 42      -0.000217473501
 Sym=     1a
 Ene= -6.05708430769900E+00
 Spin= Alpha
 Occup= 1.000000
  1      -0.000000000690
  2       0.000000000391
  3      -0.000000002016
  4       0.000000000242
  5      -0.000000000235
  6       0.201156099017
  7       0.651114385028
  8      -0.035276529008
  9       0.106844978065
 10       0.345842370750
 11      -0.018737289010
 12       0.025278975403
 13       0.081824532413
 14      -0.004433146505
 15      -0.001477194655
 16      -0.004781472250
 17       0.000259054031
 18       0.000483597802
 19       0.001565338553
 20      -0.000084808105
 21      -0.000000000351
 22      -0.000000000495
 23      -0.000000001865
 24      -0.000000002428
 25      -0.000000002032
 26      -0.000000000041
 27       0.000000000065
 28      -0.000000000907
 29      -0.000000001001
 30      -0.000000000978
 31       0.000000000011
 32       0.000000000038
 33       0.000000000237
 34       0.000000000265
 35       0.000000000152
 36      -0.000027949877
 37       0.000064479406
 38       0.000208722104
 39      -0.000029847780
 40       0.000020389130
 41      -0.000223117764
 42      -0.000177452330
 Sym=     1a
 Ene= -8.34875704949060E-01
 Spin= Alpha
 Occup= 1.000000
  1       0.086840998037
  2      -0.089665248418
  3       0.487285880113
  4       0.712747708332
  5       0.478542825880
  6      -0.000000001593
  7       0.000000002113
  8      -0.000000003927
  9       0.000000001636
 10      -0.000000000077
 11      -0.000000000803
 12      -0.000000005150
 13       0.000000001083
 14       0.000000000576
 15       0.000000003439
 16      -0.000000005306
 17       0.000000009160
 18       0.000000025515
 19      -0.000000014868
 20       0.000000021615
 21       0.000878198809
 22       0.000046733417
 23       0.000151271515
 24       0.001262794300
 25      -0.000862588246
 26       0.007067826997
 27       0.000376117028
 28       0.001217443648
 29       0.010163076581
 30      -0.006942171902
 31       0.008218783100
 32       0.000437365794
 33       0.001415698378
 34       0.011818078566
 35      -0.008072668668
 36      -0.000000000696
 37       0.000000005485
 38      -0.000000003075
 39      -0.000000000312
 40      -0.000000001396
 41      -0.000000006103
 42      -0.000000004597
 Sym=     1a
 Ene= -4.22979381706277E-01
 Spin= Alpha
 Occup= 1.000000
  1      -0.000000002078
  2       0.000000001829
  3      -0.000000012145
  4      -0.000000019517
  5      -0.000000008017
  6       0.023809497707
  7      -0.017816114266
  8      -0.193071906356
  9       0.014278134308
 10      -0.010684008750
 11      -0.115781806151
 12      -0.024467992076
 13       0.018308851099
 14       0.198411652278
 15      -0.071273788144
 16       0.053332580938
 17       0.577961216560
 18      -0.046845416354
 19       0.035053377101
 20       0.379870858129
 21      -0.000000000814
 22      -0.000000002875
 23       0.000000000969
 24       0.000000000498
 25       0.000000000004
 26      -0.000000010938
 27      -0.000000019600
 28       0.000000007968
 29       0.000000002127
 30      -0.000000001698
 31      -0.000000013963
 32      -0.000000029664
 33       0.000000012238
 34       0.000000004425
 35      -0.000000002177
 36       0.007216843894
 37       0.000091728789
 38       0.001744827116
 39       0.007655259586
 40      -0.005400435968
 41       0.000574199488
 42      -0.001681209932
 Sym=     1a
 Ene= -4.22979377647255E-01
 Spin= Alpha
 Occup= 1.000000
  1       0.000000003066
  2      -0.000000002375
  3       0.000000018070
  4       0.000000033427
  5       0.000000002451
  6       0.185143575463
  7      -0.055683037694
  8       0.027970049164
  9       0.111027325633
 10      -0.033392132318
 11       0.016773143604
 12      -0.190264050760
 13       0.057223052119
 14      -0.028743610113
 15      -0.554227738429
 16       0.166687305190
 17      -0.083728409805
 18      -0.364271777680
 19       0.109556916645
 20      -0.055031345487
 21      -0.000000001482
 22       0.000000001560
 23      -0.000000000862
 24       0.000000002330
 25      -0.000000001609
 26      -0.000000010365
 27       0.000000012770
 28      -0.000000005508
 29       0.000000016735
 30      -0.000000013206
 31      -0.000000017375
 32       0.000000019641
 33      -0.000000009719
 34       0.000000024500
 35      -0.000000021152
 36      -0.001045498359
 37      -0.002891183165
 38       0.000636331077
 39      -0.001671257914
 40      -0.000040768492
 41       0.007257011233
 42      -0.008985744857
 Sym=     1a
 Ene= -3.85818802793762E-01
 Spin= Alpha
 Occup= 1.000000
  1      -0.000000000859
  2       0.000000000820
  3      -0.000000004423
  4      -0.000000003693
  5      -0.000000009228
  6       0.056744068906
  7       0.183672905571
  8      -0.009951161421
  9       0.034196834789
 10       0.110690547016
 11      -0.005997071002
 12      -0.059496442675
 13      -0.192581971211
 14       0.010433842915
 15      -0.165843844913
 16      -0.536814175577
 17       0.029083900082
 18      -0.120473629465
 19      -0.389956912463
 20       0.021127363371
 21      -0.000000000051
 22      -0.000000000404
 23       0.000000001691
 24       0.000000001400
 25       0.000000002628
 26       0.000000000292
 27       0.000000000377
 28       0.000000011587
 29       0.000000012707
 30       0.000000016510
 31       0.000000000360
 32      -0.000000001054
 33       0.000000020883
 34       0.000000019067
 35       0.000000030692
 36       0.001139711923
 37      -0.002629426296
 38      -0.008511106053
 39       0.001217138389
 40      -0.000831397791
 41       0.009098199911
 42       0.007235968230
 Sym=     1a
 Ene= 3.80099151974117E-01
 Spin= Alpha
 Occup= 0.000000
  1       0.000000002069
  2      -0.000000001520
  3       0.000000013899
  4       0.000000051401
  5      -0.000000045342
  6       0.000000074547
  7      -0.000000012906
  8       0.000000223504
  9       0.000000022508
 10      -0.000000003510
 11       0.000000073555
 12      -0.000000006515
 13      -0.000000000380
 14      -0.000000037072
 15      -0.000000573851
 16       0.000000106318
 17      -0.000001634448
 18       0.000000716944
 19      -0.000000142060
 20       0.000001880728
 21      -0.058670471471
 22      -0.000431852833
 23      -0.003537013095
 24       0.028139071218
 25      -0.019181551502
 26      -0.170098233837
 27      -0.001252033823
 28      -0.010254561106
 29       0.081581176897
 30      -0.055611441849
 31      -0.738246303552
 32      -0.005433978483
 33      -0.044506008163
 34       0.354071873440
 35      -0.241360235312
 36      -0.000000011728
 37      -0.000000007056
 38       0.000000002130
 39      -0.000000002932
 40       0.000000001335
 41       0.000000000389
 42       0.000000001848
 Sym=     1a
 Ene= 3.80099169044416E-01
 Spin= Alpha
 Occup= 0.000000
  1      -0.000000000763
  2       0.000000000688
  3      -0.000000004792
  4      -0.000000012303
  5       0.000000005334
  6       0.000000250046
  7      -0.000000080398
  8       0.000000075052
  9       0.000000082689
 10      -0.000000026561
 11       0.000000026597
 12      -0.000000042638
 13       0.000000013477
 14      -0.000000018396
 15      -0.000001822977
 16       0.000000584576
 17      -0.000000519145
 18       0.000002092599
 19      -0.000000665238
 20       0.000000545299
 21      -0.000546102401
 22      -0.064824486732
 23       0.019992832134
 24      -0.001718950294
 25      -0.003078468664
 26      -0.001583268914
 27      -0.187940098206
 28       0.057963465678
 29      -0.004983607883
 30      -0.008925133854
 31      -0.006871579186
 32      -0.815682238661
 33       0.251568194309
 34      -0.021629448937
 35      -0.038736120499
 36       0.000000003106
 37      -0.000000009480
 38       0.000000002834
 39      -0.000000006336
 40       0.000000005248
 41       0.000000005824
 42      -0.000000006832
 Sym=     1a
 Ene= 3.80928035630801E-01
 Spin= Alpha
 Occup= 0.000000
  1       0.000000008512
  2      -0.000000006269
  3       0.000000055531
  4       0.000000190907
  5      -0.000000158356
  6       0.003807770687
  7      -0.009724100747
  8      -0.157769038984
  9       0.001247353265
 10      -0.003185429980
 11      -0.051682129309
 12      -0.000615439974
 13       0.001571680859
 14       0.025499797726
 15      -0.027932564205
 16       0.071332829279
 17       1.157342180360
 18       0.032432250234
 19      -0.082823907365
 20      -1.343779605057
 21      -0.000000080631
 22      -0.000000024335
 23      -0.000000002599
 24       0.000000036763
 25      -0.000000028453
 26      -0.000000225863
 27      -0.000000065063
 28      -0.000000010201
 29       0.000000108069
 30      -0.000000082495
 31      -0.000001029424
 32      -0.000000314496
 33      -0.000000028512
 34       0.000000459502
 35      -0.000000358332
 36       0.003360905007
 37       0.000178805190
 38       0.000770528229
 39       0.003591662276
 40      -0.002476073912
 41      -0.000079691535
 42      -0.000346513508
 Sym=     1a
 Ene= 3.80928043527043E-01
 Spin= Alpha
 Occup= 0.000000
  1       0.000000013839
  2      -0.000000009833
  3       0.000000090411
  4       0.000000306539
  5      -0.000000250151
  6      -0.151040471786
  7       0.046310429991
  8      -0.006499721649
  9      -0.049477979998
 10       0.015170414192
 11      -0.002129184779
 12       0.024412276081
 13      -0.007485033941
 14       0.001050533121
 15       1.107983614653
 16      -0.339718200960
 17       0.047679835832
 18      -1.286469825789
 19       0.394443751841
 20      -0.055360628190
 21      -0.000000036777
 22      -0.000000107604
 23       0.000000028710
 24       0.000000009542
 25      -0.000000018172
 26      -0.000000108879
 27      -0.000000306619
 28       0.000000082285
 29       0.000000034612
 30      -0.000000059561
 31      -0.000000458722
 32      -0.000001362149
 33       0.000000362089
 34       0.000000109910
 35      -0.000000217240
 36       0.000138461530
 37       0.001322294646
 38      -0.000374494147
 39       0.000404863503
 40       0.000274077197
 41      -0.003357052569
 42       0.004202622085
 Sym=     1a
 Ene= 3.99683567183894E-01
 Spin= Alpha
 Occup= 0.000000
  1      -0.000000005574
  2       0.000000003764
  3      -0.000000036236
  4      -0.000000123157
  5       0.000000101691
  6      -0.047205924403
  7      -0.152799216449
  8       0.008278466099
  9      -0.014562532208
 10      -0.047136954467
 11       0.002553819916
 12       0.004807249802
 13       0.015560419744
 14      -0.000843043963
 15       0.348202217370
 16       1.127083659017
 17      -0.061063950342
 18      -0.396107252356
 19      -1.282145800623
 20       0.069465018476
 21       0.000000002789
 22       0.000000009177
 23       0.000000023591
 24       0.000000012229
 25       0.000000008502
 26       0.000000008221
 27       0.000000027706
 28       0.000000071676
 29       0.000000038666
 30       0.000000028869
 31       0.000000035525
 32       0.000000112633
 33       0.000000290493
 34       0.000000148247
 35       0.000000098288
 36      -0.000541764590
 37       0.001249904625
 38       0.004045782882
 39      -0.000578569865
 40       0.000395208749
 41      -0.004324854931
 42      -0.003439633811
 Sym=     1a
 Ene= 4.07356565040539E-01
 Spin= Alpha
 Occup= 0.000000
  1      -0.000000010879
  2       0.000000008844
  3      -0.000000069825
  4      -0.000000221210
  5       0.000000160230
  6      -0.000000005793
  7      -0.000000047137
  8       0.000000010843
  9      -0.000000001177
 10      -0.000000012649
 11       0.000000003369
 12      -0.000000001892
 13      -0.000000001567
 14      -0.000000001211
 15       0.000000051315
 16       0.000000381425
 17      -0.000000083882
 18      -0.000000067751
 19      -0.000000497808
 20       0.000000108278
 21       0.003192251786
 22      -0.007626194922
 23      -0.034808422439
 24      -0.031038616203
 25      -0.048707013233
 26       0.009006909614
 27      -0.021517335379
 28      -0.098212002080
 29      -0.087575500780
 30      -0.137426880273
 31       0.040349795032
 32      -0.096395104675
 33      -0.439977883482
 34      -0.392327654483
 35      -0.615655772331
 36      -0.000000000877
 37      -0.000000000385
 38      -0.000000001134
 39      -0.000000005676
 40      -0.000000006480
 41       0.000000005349
 42       0.000000001502
 Sym=     1a
 Ene= 4.07356573051008E-01
 Spin= Alpha
 Occup= 0.000000
  1       0.000000006981
  2      -0.000000005696
  3       0.000000044688
  4       0.000000139895
  5      -0.000000099550
  6      -0.000000010626
  7      -0.000000030924
  8       0.000000008499
  9      -0.000000003336
 10      -0.000000009817
 11       0.000000002748
 12       0.000000001707
 13       0.000000004791
 14      -0.000000001419
 15       0.000000075224
 16       0.000000223062
 17      -0.000000062462
 18      -0.000000084495
 19      -0.000000250593
 20       0.000000076274
 21       0.005168775163
 22      -0.018734398684
 23      -0.054388475817
 24       0.022573316830
 25       0.027755859175
 26       0.014583721238
 27      -0.052859166238
 28      -0.153457151315
 29       0.063690652354
 30       0.078313185886
 31       0.065333340381
 32      -0.236802774812
 33      -0.687469496123
 34       0.285326442291
 35       0.350833600818
 36      -0.000000000900
 37      -0.000000001553
 38      -0.000000006745
 39      -0.000000002867
 40      -0.000000000722
 41      -0.000000005181
 42      -0.000000001817
 Sym=     1a
 Ene= 4.16698492096290E-01
 Spin= Alpha
 Occup= 0.000000
  1       0.012320974945
  2      -0.009585943470
  3       0.079541095552
  4       0.259900744645
  5      -0.199091466841
  6       0.000000007917
  7      -0.000000023395
  8       0.000000006731
  9       0.000000003530
 10      -0.000000007537
 11       0.000000002227
 12      -0.000000003979
 13       0.000000003668
 14      -0.000000000907
 15      -0.000000044177
 16       0.000000166223
 17      -0.000000047784
 18       0.000000023515
 19      -0.000000184318
 20       0.000000046407
 21      -0.033345154779
 22      -0.001774477051
 23      -0.005743748246
 24      -0.047948211108
 25       0.032752267413
 26      -0.091996682159
 27      -0.004895650782
 28      -0.015846553444
 29      -0.132285409356
 30       0.090360933824
 31      -0.424833792710
 32      -0.022607768078
 33      -0.073178196367
 34      -0.610884176666
 35       0.417279999476
 36      -0.000000004355
 37      -0.000000001262
 38       0.000000001981
 39      -0.000000004866
 40       0.000000002648
 41       0.000000002193
 42      -0.000000007521
 Sym=     1a
 Ene= 4.57955026989801E-01
 Spin= Alpha
 Occup= 0.000000
  1      -0.088413391968
  2       0.059333306853
  3      -0.582979827970
  4      -2.089542388485
  5       1.843883778229
  6      -0.000000015702
  7       0.000000011295
  8      -0.000000013302
  9      -0.000000003388
 10       0.000000002215
 11      -0.000000001990
 12      -0.000000005576
 13       0.000000004142
 14      -0.000000007412
 15       0.000000130940
 16      -0.000000091342
 17       0.000000113857
 18      -0.000000157430
 19       0.000000101160
 20      -0.000000129001
 21      -0.005148539140
 22      -0.000273981654
 23      -0.000886842709
 24      -0.007403261805
 25       0.005057003103
 26      -0.024994607493
 27      -0.001330099883
 28      -0.004305354151
 29      -0.035940611038
 30       0.024550225954
 31      -0.037759519202
 32      -0.002009396211
 33      -0.006504126849
 34      -0.054295743797
 35       0.037088169814
 36      -0.000000000182
 37      -0.000000000248
 38       0.000000000021
 39      -0.000000000392
 40       0.000000000194
 41       0.000000000194
 42       0.000000000061
 Sym=     1a
 Ene= 1.43955344145827E+00
 Spin= Alpha
 Occup= 0.000000
  1      -0.000000000773
  2       0.000000000392
  3      -0.000000006409
  4      -0.000000024607
  5       0.000000020138
  6       0.000000001622
  7      -0.000000000383
  8      -0.000000001671
  9       0.000000003966
 10      -0.000000001342
 11      -0.000000004931
 12      -0.000000019282
 13       0.000000006155
 14       0.000000021378
 15       0.000000018476
 16      -0.000000006342
 17      -0.000000023717
 18      -0.000000017727
 19       0.000000006133
 20       0.000000016046
 21       0.125777047962
 22       0.000072760083
 23       0.007846125290
 24      -0.060350282335
 25       0.041082938712
 26       0.991825316128
 27       0.000573756905
 28       0.061871297425
 29      -0.475897123952
 30       0.323963070991
 31      -0.780842907946
 32      -0.000451705896
 33      -0.048709949524
 34       0.374663653974
 35      -0.255049195890
 36       0.000000014665
 37       0.000000012723
 38      -0.000000006790
 39      -0.000000005650
 40       0.000000004903
 41       0.000000001947
 42      -0.000000006389
 Sym=     1a
 Ene= 1.43955349894568E+00
 Spin= Alpha
 Occup= 0.000000
  1       0.000000000827
  2      -0.000000000595
  3       0.000000005262
  4       0.000000016486
  5      -0.000000011805
  6      -0.000000001744
  7       0.000000000521
  8      -0.000000002072
  9      -0.000000004503
 10       0.000000001028
 11      -0.000000004787
 12       0.000000019501
 13      -0.000000004570
 14       0.000000021520
 15      -0.000000020067
 16       0.000000003782
 17      -0.000000018836
 18       0.000000014005
 19      -0.000000002771
 20       0.000000018396
 21       0.001942901225
 22       0.138983535920
 23      -0.042816419405
 24       0.003314964003
 25       0.006852409980
 26       0.015320917936
 27       1.095966538965
 28      -0.337632256625
 29       0.026140443270
 30       0.054035218858
 31      -0.012061829927
 32      -0.862831021271
 33       0.265810687904
 34      -0.020579810700
 35      -0.042540777526
 36      -0.000000010667
 37       0.000000015479
 38      -0.000000005123
 39       0.000000007333
 40      -0.000000009219
 41      -0.000000000114
 42      -0.000000001373
 Sym=     1a
 Ene= 1.47196656588254E+00
 Spin= Alpha
 Occup= 0.000000
  1      -0.000000008533
  2       0.000000005848
  3      -0.000000058010
  4      -0.000000191640
  5       0.000000142257
  6       0.000000000134
  7       0.000000001867
  8      -0.000000000339
  9       0.000000000406
 10       0.000000005873
 11      -0.000000000917
 12      -0.000000000740
 13      -0.000000026301
 14       0.000000004104
 15      -0.000000000442
 16       0.000000026361
 17      -0.000000003510
 18      -0.000000001403
 19      -0.000000022422
 20       0.000000002765
 21       0.004966082400
 22      -0.009581664826
 23      -0.054854171215
 24      -0.074308966766
 25      -0.113869449905
 26       0.038796195381
 27      -0.074854696099
 28      -0.428535991947
 29      -0.580522316730
 30      -0.889579652018
 31      -0.030409262327
 32       0.058672607087
 33       0.335895123895
 34       0.455025050031
 35       0.697270418339
 36      -0.000000001176
 37      -0.000000000533
 38      -0.000000000677
 39      -0.000000010931
 40      -0.000000013635
 41       0.000000014015
 42       0.000000004395
 Sym=     1a
 Ene= 1.47196660117418E+00
 Spin= Alpha
 Occup= 0.000000
  1       0.000000002996
  2      -0.000000002056
  3       0.000000020123
  4       0.000000065874
  5      -0.000000048577
  6       0.000000000514
  7       0.000000000975
  8      -0.000000000787
  9       0.000000001412
 10       0.000000002198
 11      -0.000000002048
 12      -0.000000006658
 13      -0.000000009403
 14       0.000000009114
 15       0.000000008265
 16       0.000000010081
 17      -0.000000009900
 18      -0.000000004764
 19      -0.000000005711
 20       0.000000006111
 21       0.012171930323
 22      -0.042708477774
 23      -0.128514797341
 24       0.037085322493
 25       0.041832694554
 26       0.095090559052
 27      -0.333650751177
 28      -1.003993288610
 29       0.289720890823
 30       0.326808615290
 31      -0.074533883115
 32       0.261522131771
 33       0.786950107239
 34      -0.227089046976
 35      -0.256159158909
 36      -0.000000002092
 37      -0.000000004051
 38      -0.000000016636
 39      -0.000000008392
 40      -0.000000003883
 41      -0.000000007419
 42      -0.000000001383
 Sym=     1a
 Ene= 1.48313747694579E+00
 Spin= Alpha
 Occup= 0.000000
  1      -0.002525669082
  2       0.001728377377
  3      -0.017220728752
  4      -0.056879315303
  5       0.042069551200
  6      -0.000000001364
  7      -0.000000000860
  8      -0.000000000982
  9      -0.000000003281
 10      -0.000000002120
 11      -0.000000002664
 12       0.000000014738
 13       0.000000009450
 14       0.000000011536
 15      -0.000000013446
 16      -0.000000010572
 17      -0.000000012249
 18       0.000000011467
 19       0.000000005204
 20       0.000000008099
 21       0.073165390680
 22       0.003893548015
 23       0.012602866252
 24       0.105207418547
 25      -0.071864243964
 26       0.569406149060
 27       0.030301399770
 28       0.098081205052
 29       0.818771910433
 30      -0.559279941884
 31      -0.445848144420
 32      -0.023726157218
 33      -0.076798122778
 34      -0.641102882611
 35       0.437919282014
 36       0.000000008626
 37       0.000000002336
 38      -0.000000004158
 39       0.000000009928
 40      -0.000000005472
 41      -0.000000003788
 42       0.000000014618
 Sym=     1a
 Ene= 1.64933385677474E+00
 Spin= Alpha
 Occup= 0.000000
  1       0.000000000057
  2      -0.000000000067
  3       0.000000000252
  4       0.000000000463
  5      -0.000000000001
  6      -0.000000012902
  7      -0.000000024775
  8       0.000000112260
  9      -0.000000014687
 10      -0.000000026055
 11       0.000000137962
 12       0.000000057024
 13       0.000000099609
 14      -0.000000524284
 15      -0.000000028060
 16      -0.000000038129
 17       0.000000283703
 18       0.000000011888
 19       0.000000022340
 20      -0.000000127945
 21      -0.000000003322
 22       0.000000002701
 23      -0.000000001008
 24       0.000000001713
 25      -0.000000000917
 26      -0.000000018559
 27       0.000000014989
 28      -0.000000005525
 29       0.000000009611
 30      -0.000000005118
 31       0.000000007590
 32      -0.000000005885
 33       0.000000002062
 34      -0.000000004014
 35       0.000000002121
 36       0.778895128586
 37       0.149889934890
 38       0.005375730480
 39      -0.495603438096
 40       0.349805376186
 41       0.053052617638
 42      -0.005033716991
 Sym=     1a
 Ene= 1.64933460601006E+00
 Spin= Alpha
 Occup= 0.000000
  1       0.000000000536
  2      -0.000000000544
  3       0.000000003040
  4       0.000000004739
  5       0.000000002378
  6       0.000000128079
  7       0.000000080100
  8       0.000000028760
  9       0.000000150317
 10       0.000000085246
 11       0.000000035964
 12      -0.000000569061
 13      -0.000000332128
 14      -0.000000137046
 15       0.000000282497
 16       0.000000141349
 17       0.000000077080
 18      -0.000000141413
 19      -0.000000067583
 20      -0.000000033115
 21       0.000000002469
 22       0.000000003726
 23      -0.000000000913
 24      -0.000000001075
 25       0.000000000974
 26       0.000000013701
 27       0.000000020814
 28      -0.000000005050
 29      -0.000000006006
 30       0.000000005379
 31      -0.000000005276
 32      -0.000000008516
 33       0.000000002004
 34       0.000000002414
 35      -0.000000002168
 36       0.115487745791
 37      -0.910495221730
 38       0.288937247261
 39      -0.109536721088
 40      -0.000920209709
 41      -0.150737868160
 42       0.198633466400
 Sym=     1a
 Ene= 1.67860156021003E+00
 Spin= Alpha
 Occup= 0.000000
  1      -0.000000000175
  2       0.000000000157
  3      -0.000000000951
  4      -0.000000001328
  5      -0.000000001015
  6      -0.000000085196
  7      -0.000000056700
  8       0.000000724770
  9      -0.000000100613
 10      -0.000000056167
 11       0.000000896810
 12       0.000000382370
 13       0.000000219840
 14      -0.000003407407
 15      -0.000000197452
 16      -0.000000080697
 17       0.000001911174