[Molden Format]
[Title]
 Molden file created by orca_2mkl for BaseName=si

[Atoms] AU
Si   1  14          0.0000000000         0.0000000000         0.0000000000 
[GTO]
  1 0
s   7 1.0 
    48917.8200970000         2.1827758098
     7010.8979731000         2.7394601036
     1562.1765176000         4.0624738641
      437.6219040900         5.8736929233
      141.6071157700         7.1769955558
       50.0761442980         6.0422038777
       18.4949945300         2.1262932371
s   3 1.0 
       86.9389189820        -1.5390050758
       26.8275082830        -2.7842021010
        4.5232540614         2.5673626049
s   2 1.0 
        2.1353300597        -0.8620204283
        1.0391537870        -0.2464439276
s   1 1.0 
        0.2384283516         0.2431803697
s   1 1.0 
        0.0862102248         0.1133911540
p   5 1.0 
      422.5147023600        10.6684076391
       98.7389915010        13.0936922110
       31.4599579110        13.8143135566
       11.6794745800        11.0798140835
        4.6365355093         5.9010928059
p   1 1.0 
        1.8805183133         3.1389691453
p   1 1.0 
        0.7428899378         0.9830954428
p   1 1.0 
        0.2359088529         0.2343529294
p   1 1.0 
        0.0755259536         0.0564365373
d   1 1.0 
        2.3030000000        12.2739535387
d   1 1.0 
        0.4760000000         0.7776465522
d   1 1.0 
        0.1600000000         0.1153931565
f   1 1.0 
        0.3360000000         0.4900760210

[5D]
[7F]
[9G]
[MO]
 Sym=     1a
 Ene= -6.63498366913108E+01
 Spin= Alpha
 Occup= 1.000000
  1      -0.996228192573
  2      -0.024891854664
  3      -0.003227403692
  4       0.000312629270
  5      -0.000236975020
  6       0.000000000077
  7      -0.000000000179
  8       0.000000000063
  9      -0.000000000110
 10       0.000000000280
 11      -0.000000000056
 12       0.000000000016
 13      -0.000000000175
 14       0.000000000005
 15       0.000000000036
 16       0.000000000148
 17       0.000000000059
 18      -0.000000000018
 19      -0.000000000114
 20      -0.000000000035
 21      -0.000000184818
 22      -0.000002666301
 23       0.000002761415
 24      -0.000000100873
 25      -0.000002877279
 26       0.000000197907
 27       0.000002854949
 28      -0.000002956795
 29       0.000000107985
 30       0.000003080801
 31       0.000000020592
 32       0.000000297375
 33      -0.000000307982
 34       0.000000011257
 35       0.000000320967
 36       0.000000000009
 37      -0.000000000007
 38       0.000000000007
 39       0.000000000004
 40      -0.000000000000
 41      -0.000000000005
 42      -0.000000000013
 Sym=     1a
 Ene= -5.46817386674939E+00
 Spin= Alpha
 Occup= 1.000000
  1      -0.278492518585
  2       0.306279260636
  3      -0.745087815011
  4       0.028665036351
  5      -0.010038266170
  6       0.000000001857
  7      -0.000000001861
  8      -0.000000002208
  9       0.000000000063
 10       0.000000000227
 11      -0.000000000691
 12       0.000000000434
 13       0.000000000351
 14      -0.000000001378
 15      -0.000000000198
 16      -0.000000000260
 17       0.000000000644
 18       0.000000000353
 19      -0.000000000160
 20      -0.000000000304
 21      -0.000033866450
 22      -0.000488617340
 23       0.000506045576
 24      -0.000018483524
 25      -0.000527277404
 26       0.000010330925
 27       0.000149046641
 28      -0.000154362921
 29       0.000005638103
 30       0.000160839415
 31      -0.000006914785
 32      -0.000099760657
 33       0.000103319174
 34      -0.000003773579
 35      -0.000107653780
 36      -0.000000000079
 37      -0.000000000073
 38       0.000000000014
 39      -0.000000000023
 40       0.000000000079
 41       0.000000000005
 42      -0.000000000025
 Sym=     1a
 Ene= -3.78729981987383E+00
 Spin= Alpha
 Occup= 1.000000
  1      -0.000000001107
  2       0.000000000570
  3      -0.000000003495
  4       0.000000000072
  5      -0.000000000117
  6      -0.383080373352
  7       0.396741179044
  8       0.367659140709
  9      -0.210345547625
 10       0.217846579764
 11       0.201877875298
 12      -0.064389917185
 13       0.066686074478
 14       0.061797862771
 15      -0.000368930919
 16       0.000382103305
 17       0.000354060055
 18      -0.000344310799
 19       0.000356584466
 20       0.000330453252
 21      -0.000000002061
 22      -0.000000000379
 23       0.000000001388
 24      -0.000000000909
 25      -0.000000002742
 26      -0.000000000538
 27      -0.000000000083
 28       0.000000000035
 29      -0.000000000366
 30      -0.000000000569
 31       0.000000000092
 32       0.000000000227
 33       0.000000000143
 34       0.000000000155
 35      -0.000000000463
 36      -0.000069248899
 37      -0.000032550474
 38       0.000033712291
 39      -0.000004451157
 40      -0.000126943902
 41      -0.000057826514
 42      -0.000052046915
 Sym=     1a
 Ene= -3.78623841394068E+00
 Spin= Alpha
 Occup= 1.000000
  1      -0.000000000437
  2       0.000000000611
  3      -0.000000001419
  4      -0.000000001671
  5       0.000000001092
  6      -0.156364952289
  7      -0.513894926612
  8       0.391620768995
  9      -0.084807714361
 10      -0.278721458448
 11       0.212403524455
 12      -0.026957418406
 13      -0.088595763765
 14       0.067515654395
 15       0.000592055999
 16       0.001945738204
 17      -0.001482801540
 18      -0.000313716305
 19      -0.001031017967
 20       0.000785707686
 21       0.000000000719
 22      -0.000000000658
 23       0.000000002064
 24       0.000000002570
 25       0.000000000435
 26       0.000000000026
 27      -0.000000000214
 28       0.000000001437
 29       0.000000000964
 30       0.000000000204
 31       0.000000000186
 32       0.000000000110
 33      -0.000000000791
 34      -0.000000000464
 35      -0.000000000483
 36       0.000049427184
 37      -0.000128234115
 38       0.000097968855
 39       0.000130763313
 40      -0.000013710078
 41       0.000130404648
 42      -0.000044717411
 Sym=     1a
 Ene= -3.78623841261073E+00
 Spin= Alpha
 Occup= 1.000000
  1       0.000000000240
  2      -0.000000000285
  3       0.000000000897
  4       0.000000001580
  5      -0.000000001349
  6      -0.519464429676
  7      -0.139605841587
  8      -0.390604321573
  9      -0.281742178802
 10      -0.075718079757
 11      -0.211852245274
 12      -0.089555958011
 13      -0.024068130562
 14      -0.067340410979
 15       0.001966835871
 16       0.000528592349
 17       0.001478944449
 18      -0.001042194887
 19      -0.000280090242
 20      -0.000783666133
 21       0.000000000126
 22       0.000000001305
 23      -0.000000001549
 24       0.000000001789
 25      -0.000000001975
 26       0.000000000139
 27       0.000000000672
 28      -0.000000000737
 29       0.000000000815
 30      -0.000000000887
 31       0.000000000060
 32      -0.000000000440
 33       0.000000000242
 34      -0.000000000591
 35       0.000000000448
 36      -0.000049298516
 37       0.000093084060
 38      -0.000131333444
 39       0.000131743522
 40       0.000004486905
 41       0.000031128400
 42      -0.000134494684
 Sym=     1a
 Ene= -5.53029924562044E-01
 Spin= Alpha
 Occup= 1.000000
  1       0.074475619417
  2      -0.097114345214
  3       0.416733771528
  4       0.717947076995
  5       0.446209089549
  6       0.000000002668
  7      -0.000000007089
  8       0.000000005045
  9       0.000000003464
 10      -0.000000008026
 11       0.000000005456
 12      -0.000000004991
 13       0.000000012432
 14      -0.000000010033
 15      -0.000000009590
 16       0.000000025535
 17      -0.000000015379
 18      -0.000000002087
 19      -0.000000006107
 20       0.000000008066
 21       0.000021129499
 22       0.000304871809
 23      -0.000315745698
 24       0.000011532795
 25       0.000328992910
 26       0.000072764982
 27       0.001049823039
 28      -0.001087269040
 29       0.000039713916
 30       0.001132888609
 31       0.000178910066
 32       0.002581608439
 33      -0.002673680852
 34       0.000097650543
 35       0.002785845913
 36       0.000000004506
 37       0.000000006761
 38      -0.000000002457
 39      -0.000000001605
 40       0.000000005621
 41      -0.000000005222
 42      -0.000000003217
 Sym=     1a
 Ene= -2.68580495618087E-01
 Spin= Alpha
 Occup= 1.000000
  1      -0.000000001574
  2       0.000000002011
  3      -0.000000008930
  4      -0.000000018419
  5      -0.000000003707
  6       0.106259517330
  7      -0.005915689695
  8       0.117101593478
  9       0.072510062523
 10      -0.004036785349
 11       0.079908552572
 12      -0.075651588363
 13       0.004211676605
 14      -0.083370629897
 15      -0.367058902580
 16       0.020434943438
 17      -0.404511348583
 18      -0.332687348611
 19       0.018521401597
 20      -0.366632749566
 21       0.000000001060
 22       0.000000002575
 23      -0.000000003814
 24      -0.000000000173
 25      -0.000000002607
 26       0.000000007796
 27       0.000000015008
 28      -0.000000020591
 29       0.000000002447
 30      -0.000000017393
 31       0.000000010292
 32       0.000000035477
 33      -0.000000055328
 34      -0.000000000102
 35      -0.000000039051
 36      -0.001468006782
 37       0.003024826386
 38      -0.003665616555
 39       0.002015310226
 40       0.000200481880
 41      -0.000245556946
 42      -0.002701487035
 Sym=     1a
 Ene= -2.68580493768081E-01
 Spin= Alpha
 Occup= 1.000000
  1       0.000000001462
  2      -0.000000001812
  3       0.000000008464
  4       0.000000017210
  5       0.000000004088
  6       0.073375174059
  7       0.126620332876
  8      -0.060185038822
  9       0.050070233523
 10       0.086404009223
 11      -0.041069462695
 12      -0.052239553883
 13      -0.090147496779
 14       0.042848820767
 15      -0.253464443615
 16      -0.437392541317
 17       0.207900933366
 18      -0.229729932271
 19      -0.396434916220
 20       0.188433011926
 21      -0.000000000153
 22       0.000000000361
 23       0.000000004317
 24       0.000000003242
 25       0.000000000123
 26       0.000000001766
 27       0.000000003735
 28       0.000000022506
 29       0.000000021870
 30      -0.000000001905
 31       0.000000000621
 32       0.000000000358
 33       0.000000059912
 34       0.000000051644
 35       0.000000003209
 36       0.000754495256
 37      -0.002209591452
 38       0.001251547375
 39       0.003897826157
 40      -0.000275976279
 41       0.003159912290
 42      -0.001982177917
 Sym=     1a
 Ene= -4.85164168795252E-02
 Spin= Alpha
 Occup= 0.000000
  1       0.000000001315
  2      -0.000000001588
  3       0.000000007473
  4       0.000000015299
  5       0.000000002535
  6      -0.083052254486
  7       0.086014618375
  8       0.079707954607
  9      -0.056868550511
 10       0.058896973349
 11       0.054578605004
 12       0.055815307346
 13      -0.057806157006
 14      -0.053567783205
 15       0.267736188881
 16      -0.277285994045
 17      -0.256955125385
 18       0.339875224422
 19      -0.351998121486
 20      -0.326189331957
 21       0.000000000290
 22      -0.000000000559
 23       0.000000000553
 24       0.000000000020
 25      -0.000000000152
 26       0.000000003217
 27      -0.000000003160
 28       0.000000001936
 29       0.000000001688
 30       0.000000000040
 31       0.000000003225
 32      -0.000000009384
 33       0.000000009437
 34       0.000000000572
 35      -0.000000004962
 36      -0.000034321544
 37      -0.000016174150
 38       0.000016741608
 39      -0.000002188933
 40      -0.000062903306
 41      -0.000028650986
 42      -0.000025804444
 Sym=     1a
 Ene= 2.56977085825523E-01
 Spin= Alpha
 Occup= 0.000000
  1      -0.070558373410
  2       0.061670077661
  3      -0.472035184800
  4      -1.947739407113
  5       1.776392433215
  6      -0.000000001670
  7       0.000000004415
  8      -0.000000030477
  9      -0.000000000581
 10       0.000000004847
 11      -0.000000015765
 12       0.000000000665
 13      -0.000000008869
 14       0.000000005216
 15       0.000000005506
 16      -0.000000012088
 17       0.000000222774
 18      -0.000000003882
 19       0.000000005255
 20      -0.000000219563
 21       0.000488445344
 22       0.007046785878
 23      -0.007298145431
 24       0.000266574344
 25       0.007604365030
 26       0.000583717694
 27       0.008421150274
 28      -0.008721535652
 29       0.000318569579
 30       0.009087482576
 31       0.010504006671
 32       0.151542003864
 33      -0.156947452605
 34       0.005732678842
 35       0.163532660329
 36       0.000000000311
 37      -0.000000002194
 38       0.000000002144
 39       0.000000001271
 40      -0.000000001242
 41       0.000000001176
 42      -0.000000000414
 Sym=     1a
 Ene= 2.70444934732301E-01
 Spin= Alpha
 Occup= 0.000000
  1      -0.000000009979
  2       0.000000008979
  3      -0.000000066837
  4      -0.000000276179
  5       0.000000250482
  6       0.000000007477
  7      -0.000000008735
  8       0.000000005978
  9       0.000000002273
 10      -0.000000006111
 11       0.000000004758
 12       0.000000003620
 13       0.000000006622
 14      -0.000000006223
 15      -0.000000073533
 16       0.000000022456
 17      -0.000000011676
 18       0.000000093736
 19       0.000000054658
 20      -0.000000046120
 21      -0.007326955512
 22       0.022625164494
 23       0.029686024969
 24       0.024861380428
 25       0.007123451444
 26      -0.016878579768
 27       0.052119784365
 28       0.068385324672
 29       0.057271402016
 30       0.016409735817
 31      -0.147419545549
 32       0.455220817681
 33       0.597286163153
 34       0.500215360934
 35       0.143324720673
 36      -0.000000000077
 37      -0.000000004588
 38      -0.000000005889
 39      -0.000000004097
 40       0.000000000709
 41      -0.000000000517
 42      -0.000000001679
 Sym=     1a
 Ene= 2.70444935814874E-01
 Spin= Alpha
 Occup= 0.000000
  1       0.000000002386
  2      -0.000000002109
  3       0.000000016014
  4       0.000000070541
  5      -0.000000068650
  6      -0.000000011435
  7      -0.000000018724
  8      -0.000000005249
  9      -0.000000002660
 10      -0.000000007419
 11       0.000000000293
 12      -0.000000007836
 13      -0.000000002419
 14      -0.000000007795
 15       0.000000124968
 16       0.000000145504
 17       0.000000081431
 18      -0.000000184533
 19      -0.000000142274
 20      -0.000000142221
 21      -0.026587075030
 22      -0.021530539222
 23       0.007660006290
 24      -0.005758468670
 25       0.029213034089
 26      -0.061246751930
 27      -0.049598190308
 28       0.017645756938
 29      -0.013265380469
 30       0.067295734474
 31      -0.534936475978
 32      -0.433196926491
 33       0.154120320083
 34      -0.115861459067
 35       0.587769596581
 36       0.000000005631
 37       0.000000002868
 38      -0.000000002789
 39      -0.000000000535
 40      -0.000000004913
 41       0.000000001419
 42      -0.000000000365
 Sym=     1a
 Ene= 2.72494364799723E-01
 Spin= Alpha
 Occup= 0.000000
  1       0.000000078881
  2      -0.000000071259
  3       0.000000527152
  4       0.000002187210
  5      -0.000001997034
  6       0.000000005925
  7       0.000000000568
  8       0.000000010706
  9       0.000000003102
 10       0.000000000225
 11       0.000000005807
 12      -0.000000002763
 13       0.000000001916
 14      -0.000000001260
 15      -0.000000029411
 16      -0.000000011750
 17      -0.000000070060
 18       0.000000000967
 19       0.000000017132
 20       0.000000041487
 21       0.028629834596
 22       0.002132449009
 23       0.021208637253
 24      -0.023805525850
 25       0.017374359639
 26       0.069430202333
 27       0.005171351763
 28       0.051432910452
 29      -0.057730789181
 30       0.042134373598
 31       0.569679269982
 32       0.042431431396
 33       0.422010511624
 34      -0.473684856352
 35       0.345715744139
 36      -0.000000005868
 37       0.000000000149
 38      -0.000000002321
 39       0.000000002435
 40      -0.000000002211
 41       0.000000001492
 42       0.000000000116
 Sym=     1a
 Ene= 2.72494379524998E-01
 Spin= Alpha
 Occup= 0.000000
  1       0.000000161699
  2      -0.000000145570
  3       0.000001081861
  4       0.000004501157
  5      -0.000004123501
  6      -0.000000007786
  7      -0.000000004118
  8       0.000000015208
  9      -0.000000003293
 10      -0.000000002518
 11       0.000000007369
 12      -0.000000002702
 13       0.000000003913
 14       0.000000000333
 15       0.000000065307
 16       0.000000013802
 17      -0.000000108410
 18      -0.000000063533
 19       0.000000016206
 20       0.000000084080
 21       0.023441696241
 22      -0.022125932969
 23      -0.005684734613
 24       0.030255633559
 25       0.012482062102
 26       0.056848463564
 27      -0.053657472100
 28      -0.013785928193
 29       0.073372966892
 30       0.030270069527
 31       0.466445266987
 32      -0.440262960201
 33      -0.113114830263
 34       0.602029876479
 35       0.248368419570
 36      -0.000000004695
 37       0.000000003743
 38       0.000000002673
 39      -0.000000004857
 40      -0.000000003998
 41      -0.000000000946
 42      -0.000000001889
 Sym=     1a
 Ene= 2.80713395342796E-01
 Spin= Alpha
 Occup= 0.000000
  1      -0.020312440298
  2       0.018175158690
  3      -0.136288168833
  4      -0.571558826965
  5       0.528303684665
  6       0.000000019393
  7      -0.000000021299
  8      -0.000000036541
  9       0.000000008511
 10      -0.000000009797
 11      -0.000000014583
 12       0.000000003376
 13      -0.000000002774
 14      -0.000000007997
 15      -0.000000146574
 16       0.000000150054
 17       0.000000307505
 18       0.000000123383
 19      -0.000000097544
 20      -0.000000340141
 21      -0.001721983553
 22      -0.024847445374
 23       0.025733592461
 24      -0.000939817193
 25      -0.026813147315
 26      -0.003969447440
 27      -0.057278525648
 28       0.059321220853
 29      -0.002166433587
 30      -0.061809746813
 31      -0.034103356396
 32      -0.492098212582
 33       0.509647970680
 34      -0.018612797048
 35      -0.531028099217
 36       0.000000002392
 37       0.000000002274
 38      -0.000000002432
 39       0.000000000075
 40       0.000000004888
 41       0.000000001860
 42       0.000000001446
 Sym=     1a
 Ene= 2.85239531684172E-01
 Spin= Alpha
 Occup= 0.000000
  1       0.000000011224
  2      -0.000000010243
  3       0.000000074687
  4       0.000000317622
  5      -0.000000298281
  6       0.094428626512
  7      -0.097796183867
  8      -0.090627200756
  9       0.036077631766
 10      -0.037364224178
 11      -0.034625290321
 12       0.021283991552
 13      -0.022043118467
 14      -0.020427023485
 15      -0.754820036988
 16       0.781738772107
 17       0.724433173038
 18       0.728612536840
 19      -0.754596289267
 20      -0.699281295781
 21       0.000000004208
 22       0.000000004829
 23      -0.000000007693
 24       0.000000000976
 25       0.000000006346
 26       0.000000005903
 27       0.000000017761
 28      -0.000000023717
 29       0.000000001692
 30       0.000000016549
 31       0.000000087055
 32       0.000000081832
 33      -0.000000141402
 34       0.000000022982
 35       0.000000114722
 36       0.000685241560
 37       0.000322077585
 38      -0.000333569691
 39       0.000044049398
 40       0.001256242729
 41       0.000572211071
 42       0.000515002971
 Sym=     1a
 Ene= 2.85859294780627E-01
 Spin= Alpha
 Occup= 0.000000
  1      -0.000000002685
  2       0.000000003017
  3      -0.000000017528
  4      -0.000000063661
  5       0.000000046969
  6      -0.103965841026
  7      -0.114132506345
  8       0.014833991210
  9      -0.044048781673
 10      -0.048356218567
 11       0.006284952914
 12      -0.008613529541
 13      -0.009455932545
 14       0.001228951934
 15       0.832960434480
 16       0.914414390178
 17      -0.118847960772
 18      -0.866873270601
 19      -0.951643101671
 20       0.123686849171
 21       0.000000003065
 22       0.000000004861
 23       0.000000000855
 24       0.000000000794
 25      -0.000000004670
 26       0.000000007918
 27       0.000000006665
 28      -0.000000004224
 29       0.000000000531
 30      -0.000000010683
 31       0.000000062494
 32       0.000000105815
 33       0.000000033975
 34       0.000000017632
 35      -0.000000100504
 36      -0.000133342986
 37       0.000705643862
 38       0.000083082133
 39      -0.003062619254
 40       0.000131995550
 41      -0.002018102879
 42       0.001972073864
 Sym=     1a
 Ene= 2.85859295334208E-01
 Spin= Alpha
 Occup= 0.000000
  1      -0.000000014623
  2       0.000000012970
  3      -0.000000096908
  4      -0.000000382691
  5       0.000000330568
  6       0.072187408376
  7      -0.049095488714
  8       0.128194319562
  9       0.030584697864
 10      -0.020800997162
 11       0.054314037206
 12       0.005980814801
 13      -0.004067650659
 14       0.010620822424
 15      -0.578355858229
 16       0.393346483277
 17      -1.027075774082
 18       0.601902324440
 19      -0.409360578428
 20       1.068891855779
 21      -0.000000004015
 22      -0.000000003641
 23       0.000000001612
 24      -0.000000001441
 25      -0.000000000800
 26      -0.000000002467
 27      -0.000000006517
 28      -0.000000002004
 29      -0.000000005615
 30      -0.000000004745
 31      -0.000000096545
 32      -0.000000077215
 33       0.000000044583
 34      -0.000000022876
 35      -0.000000013170
 36      -0.001152337180
 37       0.002536344717
 38      -0.002720996721
 39       0.000361948131
 40       0.000200149404
 41      -0.000942922755
 42      -0.001287051851
 Sym=     1a
 Ene= 9.47237294143558E-01
 Spin= Alpha
 Occup= 0.000000
  1       0.000000000363
  2      -0.000000000869
  3       0.000000002055
  4       0.000000009641
  5      -0.000000008304
  6       0.000000000038
  7      -0.000000000132
  8      -0.000000000017
  9       0.000000002681
 10       0.000000003482
 11      -0.000000001448
 12      -0.000000008656
 13      -0.000000010631
 14       0.000000004514
 15       0.000000017400
 16       0.000000021538
 17      -0.000000006928
 18      -0.000000003175
 19      -0.000000004118
 20       0.000000002199
 21       0.017377061896
 22       0.071802252306
 23       0.050734975552
 24       0.057226876687
 25      -0.020967970458
 26       0.191140184606
 27       0.789787572560
 28       0.558058235582
 29       0.629471057372
 30      -0.230636696750
 31      -0.134889185904
 32      -0.557359668337
 33      -0.393826344443
 34      -0.444222853312
 35       0.162762236113
 36      -0.000000012371
 37      -0.000000025297
 38      -0.000000016595
 39      -0.000000010374
 40       0.000000013114
 41      -0.000000002991
 42      -0.000000006526
 Sym=     1a
 Ene= 9.47237305061378E-01
 Spin= Alpha
 Occup= 0.000000
  1      -0.000000000446
  2       0.000000000854
  3      -0.000000002055
  4      -0.000000007823
  5       0.000000005855
  6      -0.000000000150
  7       0.000000000336
  8       0.000000000273
  9      -0.000000002744
 10       0.000000003018
 11      -0.000000004485
 12       0.000000008490
 13      -0.000000009705
 14       0.000000014000
 15      -0.000000014543
 16       0.000000016476
 17      -0.000000028112
 18       0.000000002337
 19      -0.000000006516
 20       0.000000006969
 21      -0.062613962665
 22      -0.016131106947
 23       0.051424706429
 24       0.018458411270
 25       0.067677092131
 26      -0.688726016516
 27      -0.177434017133
 28       0.565645458843
 29       0.203034423117
 30       0.744413214869
 31       0.486039572451
 32       0.125216660478
 33      -0.399180706257
 34      -0.143283049358
 35      -0.525338599512
 36       0.000000022549
 37      -0.000000001226
 38      -0.000000022208
 39      -0.000000013020
 40      -0.000000017737
 41       0.000000004409
 42      -0.000000002846
 Sym=     1a
 Ene= 9.64274469450798E-01
 Spin= Alpha
 Occup= 0.000000
  1      -0.000000025516
  2       0.000000049196
  3      -0.000000151933
  4      -0.000000675970
  5       0.000000585406
  6      -0.000000000948
  7       0.000000000858
  8       0.000000000034
  9      -0.000000001046
 10       0.000000001310
 11      -0.000000000607
 12       0.000000002345
 13      -0.000000004449
 14      -0.000000001040
 15      -0.000000005575
 16       0.000000008094
 17       0.000000003926
 18      -0.000000000662
 19      -0.000000003002
 20      -0.000000007396
 21       0.084519619915
 22      -0.014211583984
 23       0.042806601495
 24      -0.027539148888
 25       0.049794456937
 26       0.902263413869
 27      -0.151711257798
 28       0.456966591195
 29      -0.293985855184
 30       0.531561247041
 31      -0.641067810444
 32       0.107792606744
 33      -0.324679842219
 34       0.208880099480
 35      -0.377679926053
 36      -0.000000047278
 37       0.000000010110
 38      -0.000000010725
 39       0.000000005008
 40      -0.000000018824
 41       0.000000011633
 42      -0.000000000387
 Sym=     1a
 Ene= 9.64274497444848E-01
 Spin= Alpha
 Occup= 0.000000
  1      -0.000000024426
  2       0.000000046849
  3      -0.000000145173
  4      -0.000000643762
  5       0.000000556942
  6      -0.000000000360
  7       0.000000000561
  8       0.000000000293
  9      -0.000000001208
 10       0.000000000291
 11       0.000000000233
 12       0.000000005256
 13       0.000000000876
 14      -0.000000001276
 15      -0.000000007739
 16       0.000000001328
 17       0.000000003568
 18       0.000000006647
 19       0.000000003809
 20      -0.000000003027
 21       0.028117855808
 22      -0.051585269862
 23      -0.031005015221
 24       0.088487815891
 25       0.013143633045
 26       0.300163813243
 27      -0.550679663462
 28      -0.330981362085
 29       0.944625594771
 30       0.140309048006
 31      -0.213269596731
 32       0.391263998974
 33       0.235165755076
 34      -0.671166587792
 35      -0.099690995889
 36      -0.000000006309
 37       0.000000023796
 38       0.000000022954
 39      -0.000000031857
 40      -0.000000010240
 41      -0.000000003081
 42      -0.000000012625
 Sym=     1a
 Ene= 9.65128165464760E-01
 Spin= Alpha
 Occup= 0.000000
  1       0.000930826373
  2      -0.001765168646
  3       0.005550167897
  4       0.024638184954
  5      -0.021426884863
  6       0.000000000888
  7      -0.000000000534
  8      -0.000000001386
  9      -0.000000001748
 10       0.000000004866
 11      -0.000000003051
 12       0.000000006762
 13      -0.000000015339
 14       0.000000007778
 15      -0.000000012061
 16       0.000000024120
 17      -0.000000010174
 18       0.000000007321
 19      -0.000000010663
 20       0.000000000319
 21      -0.004333662358
 22      -0.062568709517
 23       0.064799020153
 24      -0.002365268368
 25      -0.067515719513
 26      -0.045750666320
 27      -0.660555515666
 28       0.684100657406
 29      -0.024970287363
 30      -0.712780543654
 31       0.032241194050
 32       0.465506616501
 33      -0.482099254278
 34       0.017596952474
 35       0.502310404437
 36       0.000000002632
 37       0.000000019443
 38      -0.000000023349
 39      -0.000000013728
 40       0.000000014817
 41      -0.000000005130
 42       0.000000005932
 Sym=     1a
 Ene= 1.02844803071953E+00
 Spin= Alpha
 Occup= 0.000000
  1      -0.000000000115
  2       0.000000000151
  3      -0.000000000781
  4      -0.000000001584
  5      -0.000000000722
  6      -0.000000042318
  7       0.000000049522
  8       0.000000034957
  9      -0.000000081071
 10       0.000000082322
 11       0.000000079183
 12       0.000000281086
 13      -0.000000275722
 14      -0.000000285746
 15      -0.000000230443
 16       0.000000180762
 17       0.000000280822
 18       0.000000069844
 19      -0.000000053739
 20      -0.000000082028
 21      -0.000000002620
 22      -0.000000002577
 23       0.000000000737
 24      -0.000000000830
 25       0.000000002683
 26      -0.000000023408
 27      -0.000000022818
 28       0.000000006769
 29      -0.000000007340
 30       0.000000023823
 31       0.000000012237
 32       0.000000012030
 33      -0.000000004069
 34       0.000000003745
 35      -0.000000012238
 36      -0.455199557687
 37      -0.272509312326
 38       0.253499701036
 39       0.006510386682
 40       0.666204489046
 41      -0.331195516065
 42      -0.317346282049
 Sym=     1a
 Ene= 1.02844983478779E+00
 Spin= Alpha
 Occup= 0.000000
  1      -0.000000000129
  2       0.000000000148
  3      -0.000000000676
  4      -0.000000000874
  5      -0.000000001056
  6      -0.000000004374
  7      -0.000000002704
  8      -0.000000001194
  9      -0.000000000127
 10      -0.000000000087
 11       0.000000000357
 12      -0.000000007674
 13      -0.000000005445
 14      -0.000000002625
 15       0.000000035716
 16       0.000000022956
 17       0.000000012105
 18      -0.000000003872
 19       0.000000000922
 20      -0.000000005398
 21      -0.000000001051
 22       0.000000001605
 23       0.000000003553
 24       0.000000002296
 25       0.000000000665
 26      -0.000000009392
 27       0.000000014117
 28       0.000000031928
 29       0.000000020245
 30       0.000000005857
 31       0.000000004881
 32      -0.000000006773
 33      -0.000000017340
 34      -0.000000010319
 35      -0.000000002494
 36      -0.013563362327
 37       0.474335736762
 38       0.473386240281
 39       0.565353989652
 40       0.000031802992
 41      -0.331618596908
 42       0.348038910330
 Sym=     1a
 Ene= 1.03247810772831E+00
 Spin= Alpha
 Occup= 0.000000
  1       0.000000000471
  2      -0.000000000616
  3       0.000000002684
  4       0.000000004579
  5       0.000000002775
  6      -0.000000128654
  7       0.000000034920
  8      -0.000000188539
  9       0.000000026801
 10      -0.000000015994
 11       0.000000012099
 12      -0.000000219195
 13       0.000000092326
 14      -0.000000216877
 15       0.000001077256
 16      -0.000000346643
 17       0.000001409537